/*--------------------------------*- C++ -*----------------------------------*\
| =========                 |                                                 |
| \\      /  F ield         | OpenFOAM: The Open Source CFD Toolbox           |
|  \\    /   O peration     | Version:  v2012                                 |
|   \\  /    A nd           | Website:  www.openfoam.com                      |
|    \\/     M anipulation  |                                                 |
\*---------------------------------------------------------------------------*/
FoamFile
{
    version     2.0;
    format      ascii;
    class       volScalarField;
    location    "850";
    object      alphat;
}
// * * * * * * * * * * * * * * * * * * * * * * * * * * * * * * * * * * * * * //

dimensions      [1 -1 -1 0 0 0 0];


internalField   nonuniform List<scalar> 
24000
(
0.00049030222
0.00023826376
0.0001870666
0.00019648345
0.00017490609
0.0001442404
0.0001121707
8.7317557e-05
7.5327397e-05
4.5377384e-05
2.494219e-05
1.7233625e-05
1.4596061e-05
1.0800587e-05
6.5253467e-06
3.9579696e-06
2.3263567e-06
1.2015486e-06
4.9182501e-07
1.7338484e-07
5.4368176e-08
1.5525211e-08
4.061492e-09
9.608435e-10
1.9894839e-10
3.4033357e-11
4.4050895e-12
4.488856e-13
1.4253087e-13
1.523461e-13
0.00049210001
0.00023707503
0.00018715912
0.00019583706
0.00017459181
0.00014411243
0.00011210976
8.7260848e-05
7.5197824e-05
4.5300817e-05
2.4897238e-05
1.7195886e-05
1.4549604e-05
1.0752546e-05
6.4955758e-06
3.9388055e-06
2.3137894e-06
1.1943887e-06
4.8854356e-07
1.7214342e-07
5.3963414e-08
1.5407378e-08
4.030424e-09
9.5348254e-10
1.9742641e-10
3.377322e-11
4.3708808e-12
4.4467266e-13
1.4053941e-13
1.5013934e-13
0.00049397255
0.00024014464
0.00018728852
0.00019579958
0.00017433675
0.00014378989
0.00011179284
8.6902947e-05
7.4807728e-05
4.5211072e-05
2.4844956e-05
1.7154641e-05
1.4517038e-05
1.0709248e-05
6.4674249e-06
3.9207583e-06
2.3020032e-06
1.1861143e-06
4.8459491e-07
1.7061097e-07
5.3458304e-08
1.5260099e-08
3.9916626e-09
9.4431585e-10
1.9553377e-10
3.3451282e-11
4.3303519e-12
4.4171193e-13
1.4062309e-13
1.5034582e-13
0.00049588046
0.00024207834
0.00018743316
0.0001955815
0.00017410319
0.00014356409
0.00011159121
8.6689714e-05
7.4544814e-05
4.5119094e-05
2.4791653e-05
1.7113788e-05
1.4475737e-05
1.0662798e-05
6.4389525e-06
3.9034174e-06
2.2912279e-06
1.179419e-06
4.8158427e-07
1.694903e-07
5.3097829e-08
1.5156268e-08
3.9644851e-09
9.3790328e-10
1.9421071e-10
3.3225938e-11
4.3015557e-12
4.391091e-13
1.4008268e-13
1.4979977e-13
0.00049781781
0.00024399833
0.00018758981
0.00019534992
0.00017387113
0.00014334694
0.00011139852
8.6484815e-05
7.4286419e-05
4.5025091e-05
2.4736908e-05
1.7072484e-05
1.4436753e-05
1.0617821e-05
6.411103e-06
3.886243e-06
2.2803825e-06
1.1724306e-06
4.7838633e-07
1.6828326e-07
5.2705951e-08
1.5042791e-08
3.9347005e-09
9.3086575e-10
1.9275783e-10
3.2978488e-11
4.2700327e-12
4.3637754e-13
1.3963315e-13
1.4936663e-13
0.00049978277
0.00024578275
0.00018775826
0.00019510307
0.00017364263
0.00014314036
0.00011121701
8.6290179e-05
7.4040797e-05
4.4930012e-05
2.4681381e-05
1.7031006e-05
1.4397344e-05
1.0572744e-05
6.3831488e-06
3.8689883e-06
2.2695011e-06
1.1654658e-06
4.7520902e-07
1.6708675e-07
5.2317988e-08
1.4930513e-08
3.9052349e-09
9.2390336e-10
1.9132024e-10
3.2733586e-11
4.2388013e-12
4.3363891e-13
1.3914923e-13
1.4889293e-13
0.00050177396
0.000247511
0.00018793828
0.00019485256
0.00017341701
0.0001429388
0.00011104022
8.6099731e-05
7.3800477e-05
4.4834303e-05
2.4625362e-05
1.6989424e-05
1.4357937e-05
1.0527791e-05
6.3552023e-06
3.8517046e-06
2.2585932e-06
1.1584772e-06
4.7202062e-07
1.6588585e-07
5.1928554e-08
1.4817791e-08
3.8756486e-09
9.1691165e-10
1.8987649e-10
3.2487618e-11
4.2074302e-12
4.3088487e-13
1.3865958e-13
1.4841312e-13
0.00050379059
0.00024921266
0.00018812976
0.00019460099
0.00017319373
0.00014274048
0.00011086638
8.5912072e-05
7.3563613e-05
4.4738291e-05
2.4569077e-05
1.6947816e-05
1.4318487e-05
1.0482929e-05
6.3272856e-06
3.8344186e-06
2.2476836e-06
1.1514931e-06
4.6883619e-07
1.6468703e-07
5.1539899e-08
1.4705299e-08
3.846121e-09
9.0993329e-10
1.8843537e-10
3.2242077e-11
4.1761073e-12
4.2812983e-13
1.3816457e-13
1.47927e-13
0.00050583225
0.00025091208
0.00018833262
0.00019435031
0.00017297252
0.00014254436
0.00011069456
8.5726415e-05
7.3329642e-05
4.4642197e-05
2.4512677e-05
1.6906234e-05
1.4279064e-05
1.0438202e-05
6.2994219e-06
3.8171551e-06
2.2367896e-06
1.1445241e-06
4.6566098e-07
1.6349236e-07
5.1152697e-08
1.4593243e-08
3.8167088e-09
9.0298195e-10
1.8699975e-10
3.1997457e-11
4.1448976e-12
4.2538113e-13
1.3766713e-13
1.4743776e-13
0.0005078987
0.00025262262
0.00018824831
0.00019410151
0.00017275316
0.00014235
0.00011052425
8.5542387e-05
7.3099161e-05
4.454617e-05
2.4456263e-05
1.6864714e-05
1.4239705e-05
1.039362e-05
6.2716333e-06
3.7999297e-06
2.225923e-06
1.1375782e-06
4.6249909e-07
1.6230337e-07
5.0767422e-08
1.4481754e-08
3.7874453e-09
8.9606541e-10
1.8557125e-10
3.1754031e-11
4.113836e-12
4.2264251e-13
1.3716852e-13
1.4694682e-13
0.00050998983
0.00025435126
0.000188116
0.00019385483
0.00017253528
0.00014215711
0.00011035518
8.5359707e-05
7.2871177e-05
4.4450298e-05
2.43999e-05
1.682328e-05
1.4200435e-05
1.034921e-05
6.2439439e-06
3.7827551e-06
2.2150907e-06
1.1306615e-06
4.5935328e-07
1.6112112e-07
5.0384473e-08
1.4370951e-08
3.7583622e-09
8.8919141e-10
1.8415148e-10
3.1512086e-11
4.0829599e-12
4.1991767e-13
1.366699e-13
1.4645537e-13
0.00051210559
0.00025610412
0.00018799379
0.00019361013
0.00017231866
0.00014196545
0.00011018715
8.5178249e-05
7.2644665e-05
4.4354646e-05
2.4343635e-05
1.6781948e-05
1.416129e-05
1.0304977e-05
6.2163524e-06
3.7656374e-06
2.2042971e-06
1.123777e-06
4.5622468e-07
1.5994609e-07
5.0004012e-08
1.4260882e-08
3.729472e-09
8.8236279e-10
1.8274104e-10
3.1271722e-11
4.0522831e-12
4.172082e-13
1.3617193e-13
1.4596416e-13
0.00051424601
0.00025788555
0.00018788192
0.00019336724
0.00017210334
0.00014177497
0.00011002007
8.4997899e-05
7.2419319e-05
4.4259265e-05
2.4287498e-05
1.6740728e-05
1.4122276e-05
1.0260922e-05
6.1888665e-06
3.7485817e-06
2.1935471e-06
1.1169274e-06
4.5311496e-07
1.5877898e-07
4.9626245e-08
1.4151613e-08
3.7007929e-09
8.7558402e-10
1.8134081e-10
3.103309e-11
4.0218247e-12
4.1451604e-13
1.3567526e-13
1.4547386e-13
0.00051641107
0.0002596963
0.00018778052
0.00019312631
0.00017188934
0.00014158569
0.000109854
8.4818627e-05
7.2195444e-05
4.4164193e-05
2.4231513e-05
1.6699627e-05
1.4083392e-05
1.0217062e-05
6.1614999e-06
3.7315918e-06
2.1828416e-06
1.1101133e-06
4.5002449e-07
1.5761979e-07
4.9251146e-08
1.4043128e-08
3.6723208e-09
8.6885382e-10
1.7995057e-10
3.0796141e-11
3.9915784e-12
4.1184084e-13
1.3517997e-13
1.4498455e-13
0.00051860081
0.00026153561
0.00018768974
0.0001928872
0.00017167665
0.0001413975
0.00010968882
8.464045e-05
7.1973515e-05
4.4069454e-05
2.4175695e-05
1.6658655e-05
1.4044659e-05
1.0173393e-05
6.1342478e-06
3.7146712e-06
2.1721828e-06
1.1033372e-06
4.4695394e-07
1.5646884e-07
4.8878871e-08
1.3935476e-08
3.644068e-09
8.621755e-10
1.78571e-10
3.0561002e-11
3.9615607e-12
4.0918431e-13
1.3468658e-13
1.4449683e-13
0.00052081526
0.00026340366
0.00018760967
0.00019264983
0.00017146525
0.00014121041
0.00010952446
8.4463275e-05
7.1753133e-05
4.3975059e-05
2.4120057e-05
1.6617812e-05
1.4006081e-05
1.0129918e-05
6.1071101e-06
3.6978196e-06
2.1615721e-06
1.0965993e-06
4.4390351e-07
1.5532622e-07
4.8509437e-08
1.382866e-08
3.6160351e-09
8.5554893e-10
1.7720208e-10
3.0327669e-11
3.9317706e-12
4.065462e-13
1.3419495e-13
1.4401056e-13
0.00052305449
0.00026530125
0.00018754035
0.0001924138
0.00017125499
0.00014102431
0.0001093609
8.4287069e-05
7.153427e-05
4.3881017e-05
2.4064603e-05
1.6577102e-05
1.3967649e-05
1.0086637e-05
6.0800989e-06
3.6810399e-06
2.15101e-06
1.0898996e-06
4.4087351e-07
1.5419204e-07
4.8142863e-08
1.3722691e-08
3.5882253e-09
8.4897506e-10
1.75844e-10
3.0096179e-11
3.9022141e-12
4.039273e-13
1.3370552e-13
1.4352619e-13
0.00052531858
0.00026722784
0.0001874819
0.00019217934
0.00017104592
0.00014083924
0.00010919812
8.4111802e-05
7.1316825e-05
4.3787335e-05
2.4009338e-05
1.6536525e-05
1.3929367e-05
1.0043555e-05
6.0532087e-06
3.6643327e-06
2.1404964e-06
1.0832383e-06
4.3786379e-07
1.5306614e-07
4.7779068e-08
1.3617539e-08
3.5606314e-09
8.4245198e-10
1.7449631e-10
2.986645e-11
3.8728805e-12
4.0132682e-13
1.3321829e-13
1.4304373e-13
0.00052760764
0.00026918145
0.00018743427
0.0001919464
0.00017083804
0.00014065523
0.00010903618
8.3937455e-05
7.1100757e-05
4.3694016e-05
2.3954268e-05
1.6496086e-05
1.3891245e-05
1.0000674e-05
6.0264372e-06
3.6476987e-06
2.1300333e-06
1.0766173e-06
4.348749e-07
1.5194881e-07
4.7418191e-08
1.3513245e-08
3.5332635e-09
8.359822e-10
1.7315962e-10
2.9638575e-11
3.8437813e-12
3.9874573e-13
1.3273336e-13
1.4256331e-13
0.00052992183
0.00027116154
0.00018739831
0.00019171486
0.0001706313
0.0001404722
0.00010887498
8.3764059e-05
7.0886115e-05
4.3601064e-05
2.3899396e-05
1.6455785e-05
1.3853276e-05
9.9579842e-06
5.9997938e-06
3.6311383e-06
2.1196203e-06
1.0700351e-06
4.3190643e-07
1.5083985e-07
4.7060158e-08
1.3409785e-08
3.5061147e-09
8.2956403e-10
1.7183352e-10
2.9412496e-11
3.8149083e-12
3.9618319e-13
1.3225042e-13
1.4208456e-13
0.0005322614
0.00027316957
0.00018737481
0.00019148445
0.00017042562
0.00014029011
0.00010871444
8.3591528e-05
7.0672874e-05
4.3508485e-05
2.3844725e-05
1.641562e-05
1.3815456e-05
9.9154999e-06
5.9732764e-06
3.614653e-06
2.1092574e-06
1.0634921e-06
4.289586e-07
1.4973935e-07
4.6704988e-08
1.3307173e-08
3.4791891e-09
8.231986e-10
1.705183e-10
2.9188268e-11
3.7862698e-12
3.9364022e-13
1.3176998e-13
1.4160809e-13
0.0005346267
0.00027497749
0.00018736411
0.00019125515
0.00017022097
0.00014010898
0.00010855463
8.3419848e-05
7.0460997e-05
4.3416284e-05
2.3790253e-05
1.6375592e-05
1.3777785e-05
9.8732156e-06
5.9468785e-06
3.5982417e-06
2.0989447e-06
1.0569887e-06
4.2603134e-07
1.4864719e-07
4.6352609e-08
1.3205381e-08
3.4524793e-09
8.1688395e-10
1.6921348e-10
2.8965805e-11
3.7578548e-12
3.9111582e-13
1.3129188e-13
1.4113373e-13
0.00053701826
0.00027662085
0.00018736639
0.00019102725
0.00017001739
0.00013992879
0.00010839555
8.3249041e-05
7.025045e-05
4.3324463e-05
2.373598e-05
1.6335703e-05
1.3740268e-05
9.831124e-06
5.9206085e-06
3.5819058e-06
2.0886839e-06
1.0505255e-06
4.2312479e-07
1.4756352e-07
4.6003103e-08
1.3104431e-08
3.4259921e-09
8.1062172e-10
1.6791942e-10
2.8745163e-11
3.7296706e-12
3.8861051e-13
1.3081612e-13
1.4066143e-13
0.00053943673
0.00027828175
0.00018738182
0.00019080063
0.00016981486
0.00013974964
0.0001082372
8.307907e-05
7.0041201e-05
4.3233019e-05
2.3681906e-05
1.6295952e-05
1.3702896e-05
9.7892373e-06
5.8944673e-06
3.5656448e-06
2.0784729e-06
1.0441007e-06
4.2023832e-07
1.4648803e-07
4.5656372e-08
1.3004296e-08
3.3997184e-09
8.0440985e-10
1.6663574e-10
2.8526272e-11
3.7017074e-12
3.8612352e-13
1.3034252e-13
1.40191e-13
0.0005418818
0.00027996027
0.00018741028
0.00019057502
0.00016961332
0.00013957131
0.00010807945
8.2909917e-05
6.9833403e-05
4.3141951e-05
2.3628032e-05
1.6256335e-05
1.3665658e-05
9.7475511e-06
5.8684476e-06
3.5494591e-06
2.0683127e-06
1.0377156e-06
4.1737255e-07
1.4542096e-07
4.5312485e-08
1.2904999e-08
3.373666e-09
7.9825023e-10
1.6536281e-10
2.8309211e-11
3.6739755e-12
3.8365588e-13
1.2987142e-13
1.3972285e-13
0.00054435344
0.00028165637
0.00018745185
0.00019035012
0.00016941267
0.00013939392
0.0001079223
8.2741532e-05
6.9627027e-05
4.3051255e-05
2.3574356e-05
1.6216855e-05
1.3628568e-05
9.7060623e-06
5.842552e-06
3.533348e-06
2.0582036e-06
1.03137e-06
4.14527e-07
1.4436207e-07
4.4971316e-08
1.2806501e-08
3.3478226e-09
7.9213974e-10
1.6409997e-10
2.8093859e-11
3.6464596e-12
3.8120604e-13
1.2940241e-13
1.3925655e-13
0.00054685151
0.00028337002
0.00018750663
0.00019012625
0.00016921302
0.00013921743
0.00010776584
8.2573931e-05
6.942183e-05
4.2960929e-05
2.3520878e-05
1.6177509e-05
1.3591602e-05
9.6647704e-06
5.8167896e-06
3.5173129e-06
2.0481456e-06
1.0250635e-06
4.1170163e-07
1.4331141e-07
4.4632932e-08
1.2708819e-08
3.3221954e-09
7.8608026e-10
1.628476e-10
2.7880287e-11
3.6191694e-12
3.7877513e-13
1.2893593e-13
1.3879257e-13
0.00054937586
0.00028510118
0.00018757461
0.00018990341
0.00016901435
0.00013904192
0.00010761001
8.2407129e-05
6.9217787e-05
4.2870971e-05
2.3467594e-05
1.6138298e-05
1.3554785e-05
9.6236816e-06
5.7911469e-06
3.5013524e-06
2.0381374e-06
1.0187955e-06
4.0889618e-07
1.4226883e-07
4.4297283e-08
1.261194e-08
3.296779e-09
7.8007047e-10
1.6160546e-10
2.7668444e-11
3.5920984e-12
3.7636237e-13
1.2847166e-13
1.3833052e-13
0.00055192635
0.00028684977
0.00018765595
0.00018968142
0.00016881665
0.0001388673
0.00010745476
8.2241084e-05
6.9014899e-05
4.2781379e-05
2.3414504e-05
1.6099221e-05
1.3517373e-05
9.582792e-06
5.7656256e-06
3.4854668e-06
2.0281804e-06
1.0125671e-06
4.0611122e-07
1.4123451e-07
4.3964416e-08
1.2515877e-08
3.2715776e-09
7.7411146e-10
1.6037377e-10
2.7458369e-11
3.5652509e-12
3.7396817e-13
1.2800967e-13
1.3787049e-13
0.00055450285
0.00028861571
0.00018775062
0.00018946001
0.00016861981
0.00013869355
0.00010730003
8.2075768e-05
6.8813227e-05
4.2692153e-05
2.3361607e-05
1.6060276e-05
1.3479603e-05
9.5420883e-06
5.7402352e-06
3.4696562e-06
2.018274e-06
1.0063774e-06
4.0334588e-07
1.4020811e-07
4.3634177e-08
1.2420586e-08
3.246578e-09
7.6819981e-10
1.591518e-10
2.7249943e-11
3.5386109e-12
3.7159124e-13
1.2754981e-13
1.3741237e-13
0.00055710523
0.00029039891
0.0001878587
0.00018923919
0.00016842381
0.00013852071
0.00010714588
8.1911158e-05
6.8612715e-05
4.2603296e-05
2.3308902e-05
1.602146e-05
1.3441959e-05
9.5015898e-06
5.7149651e-06
3.4539214e-06
2.0084186e-06
1.0002263e-06
4.0060046e-07
1.3918981e-07
4.3306669e-08
1.2326098e-08
3.2217906e-09
7.6233834e-10
1.5794018e-10
2.7043276e-11
3.5121943e-12
3.6923307e-13
1.270925e-13
1.369566e-13
0.00055973336
0.00029219927
0.00018798006
0.00018901927
0.00016822875
0.00013834881
0.00010699236
8.1747262e-05
6.8413294e-05
4.2514809e-05
2.3256389e-05
1.5982774e-05
1.3404434e-05
9.4612848e-06
5.6898128e-06
3.43826e-06
1.9986127e-06
9.9411354e-07
3.9787472e-07
1.3817945e-07
4.2981841e-08
1.2232394e-08
3.1972099e-09
7.5652551e-10
1.5673852e-10
2.6838301e-11
3.4859917e-12
3.6689249e-13
1.2663717e-13
1.3650255e-13
0.00056238714
0.00029401668
0.00018811451
0.00018880007
0.00016803457
0.00013817782
0.00010683936
8.1584073e-05
6.8215001e-05
4.2426692e-05
2.3204063e-05
1.5944214e-05
1.3367024e-05
9.4211674e-06
5.6647899e-06
3.4226738e-06
1.9888579e-06
9.8803988e-07
3.9516891e-07
1.3717707e-07
4.2659696e-08
1.2139476e-08
3.1728358e-09
7.507615e-10
1.5554692e-10
2.6635029e-11
3.4600053e-12
3.6456987e-13
1.2618411e-13
1.3605053e-13
0.00056506645
0.00029585102
0.00018826178
0.00018858134
0.00016784126
0.00013800771
0.00010668685
8.1421519e-05
6.8017822e-05
4.2338942e-05
2.3151921e-05
1.5905777e-05
1.3329734e-05
9.3812426e-06
5.6398872e-06
3.4071619e-06
1.979153e-06
9.8200375e-07
3.9248218e-07
1.3618237e-07
4.2340098e-08
1.2047304e-08
3.1486573e-09
7.4504346e-10
1.5436477e-10
2.643335e-11
3.4342202e-12
3.6226421e-13
1.2573337e-13
1.3560062e-13
0.00056777121
0.00029770214
0.00018842118
0.0001883628
0.00016764868
0.00013783845
0.00010653486
8.125962e-05
6.7821722e-05
4.2251558e-05
2.3099962e-05
1.5867459e-05
1.3292563e-05
9.341512e-06
5.6151012e-06
3.3917241e-06
1.9694984e-06
9.7600597e-07
3.8981515e-07
1.3519568e-07
4.2023187e-08
1.1955924e-08
3.1246873e-09
7.393747e-10
1.5319278e-10
2.6233401e-11
3.4086537e-12
3.5997685e-13
1.25285e-13
1.3515286e-13
0.00057050134
0.00029956991
0.00018859046
0.00018814478
0.00016745692
0.00013767012
0.00010638341
8.1098362e-05
6.7626643e-05
4.2164538e-05
2.3048183e-05
1.5829261e-05
1.3255504e-05
9.3019691e-06
5.5904385e-06
3.3763589e-06
1.9598925e-06
9.7004572e-07
3.8716718e-07
1.3421662e-07
4.1708843e-08
1.1865293e-08
3.1009144e-09
7.3375232e-10
1.5203032e-10
2.603507e-11
3.3832914e-12
3.5770604e-13
1.2483823e-13
1.3470643e-13
0.00057325675
0.00030145416
0.00018878009
0.00018792742
0.00016726599
0.00013750267
0.00010623247
8.0937756e-05
6.7432592e-05
4.2077881e-05
2.2996583e-05
1.5791177e-05
1.3218552e-05
9.2626063e-06
5.5658981e-06
3.3610681e-06
1.9503374e-06
9.6412377e-07
3.8453863e-07
1.3324529e-07
4.13971e-08
1.1775425e-08
3.0773432e-09
7.281776e-10
1.5087764e-10
2.5838405e-11
3.3581408e-12
3.5545307e-13
1.2439394e-13
1.3426229e-13
0.00057603739
0.00030335474
0.00018898488
0.00018771043
0.00016707583
0.00013733604
0.00010608194
8.0777754e-05
6.7239591e-05
4.1991588e-05
2.2945159e-05
1.5753204e-05
1.3181713e-05
9.2234373e-06
5.5414715e-06
3.3458502e-06
1.9408315e-06
9.582388e-07
3.8192889e-07
1.3228153e-07
4.1087868e-08
1.1686289e-08
3.0539637e-09
7.2264806e-10
1.4973427e-10
2.5643312e-11
3.3331899e-12
3.5321687e-13
1.2395196e-13
1.3382027e-13
0.00057884319
0.00030527148
0.00018920339
0.00018749356
0.00016688641
0.00013717026
0.00010593188
8.0618326e-05
6.7047591e-05
4.1905658e-05
2.2893906e-05
1.5715339e-05
1.3144985e-05
9.1844528e-06
5.5171628e-06
3.3307046e-06
1.9313745e-06
9.5239125e-07
3.7933826e-07
1.3132553e-07
4.0781227e-08
1.1597919e-08
3.0307858e-09
7.1716612e-10
1.4860072e-10
2.5449882e-11
3.3084495e-12
3.5099813e-13
1.2351207e-13
1.3338008e-13
0.00058167411
0.0003072042
0.00018943883
0.00018727669
0.00016669764
0.0001370053
0.00010578227
8.0459491e-05
6.685654e-05
4.1820092e-05
2.2842822e-05
1.5677579e-05
1.3108358e-05
9.1456437e-06
5.4929764e-06
3.3156301e-06
1.9219656e-06
9.4658032e-07
3.7676603e-07
1.3037684e-07
4.0477042e-08
1.1510266e-08
3.0077961e-09
7.1172853e-10
1.474763e-10
2.5258002e-11
3.2839042e-12
3.4879534e-13
1.2307383e-13
1.3294126e-13
0.00058453008
0.00030915271
0.00018969239
0.00018706024
0.00016650966
0.00013684119
0.00010563309
8.0301226e-05
6.6666428e-05
4.1734892e-05
2.2791905e-05
1.5639919e-05
1.3071831e-05
9.1070184e-06
5.468903e-06
3.3006294e-06
1.9126068e-06
9.4080697e-07
3.7421288e-07
1.2943574e-07
4.0175409e-08
1.1423361e-08
2.9850047e-09
7.0633783e-10
1.4636155e-10
2.506777e-11
3.2595682e-12
3.4661028e-13
1.226381e-13
1.3250479e-13
0.00058741099
0.00031111682
0.00018995636
0.00018684426
0.00016632245
0.00013667786
0.00010548427
8.0143542e-05
6.647731e-05
4.1650063e-05
2.2741152e-05
1.5602356e-05
1.3035408e-05
9.0685753e-06
5.4449417e-06
3.2856993e-06
1.9032959e-06
9.3506973e-07
3.7167805e-07
1.2850199e-07
3.9876215e-08
1.1337166e-08
2.9623994e-09
7.0099097e-10
1.4525576e-10
2.4879063e-11
3.2354255e-12
3.4444124e-13
1.2220436e-13
1.3207011e-13
0.00059031675
0.00031309629
0.00019023309
0.00018662848
0.00016613604
0.00013651533
0.00010533583
7.9986406e-05
6.628916e-05
4.1565612e-05
2.2690563e-05
1.5564887e-05
1.2999085e-05
9.0303094e-06
5.4211033e-06
3.2708403e-06
1.8940329e-06
9.2936883e-07
3.6916164e-07
1.275757e-07
3.9579504e-08
1.1251703e-08
2.939987e-09
6.9568974e-10
1.4415942e-10
2.4691956e-11
3.2114863e-12
3.422891e-13
1.2177268e-13
1.3163727e-13
0.00059324727
0.00031509091
0.00019052328
0.00018641265
0.00016595032
0.00013635358
0.0001051878
7.9829816e-05
6.6101897e-05
4.1481539e-05
2.2640133e-05
1.5527503e-05
1.2962853e-05
8.9922141e-06
5.3973752e-06
3.2560517e-06
1.8848178e-06
9.2370404e-07
3.666632e-07
1.2665653e-07
3.9285177e-08
1.1166939e-08
2.917758e-09
6.9043173e-10
1.4307197e-10
2.4506354e-11
3.1877376e-12
3.4015277e-13
1.2134291e-13
1.3120608e-13
0.0005962024
0.00031710045
0.0001908274
0.00018619688
0.00016576527
0.00013619259
0.00010504009
7.9673775e-05
6.591553e-05
4.1397848e-05
2.2589857e-05
1.5490204e-05
1.2926712e-05
8.9543017e-06
5.3737572e-06
3.2413348e-06
1.8756519e-06
9.1807624e-07
3.6418361e-07
1.2574482e-07
3.899336e-08
1.108291e-08
2.8957233e-09
6.8521975e-10
1.4199405e-10
2.4322374e-11
3.1641942e-12
3.3803375e-13
1.2091551e-13
1.3077707e-13
0.000599182
0.0003191247
0.00019114554
0.00018598162
0.000165581
0.00013603231
0.00010489268
7.9518252e-05
6.5730079e-05
4.1314543e-05
2.2539733e-05
1.5452983e-05
1.2890665e-05
8.9165645e-06
5.3502569e-06
3.2266868e-06
1.866532e-06
9.1248325e-07
3.617216e-07
1.2484015e-07
3.8703874e-08
1.099956e-08
2.8738668e-09
6.8004962e-10
1.4092471e-10
2.4139853e-11
3.1408348e-12
3.3592988e-13
1.2048976e-13
1.3034949e-13
0.00060218588
0.00032116345
0.00019147768
0.00018576677
0.00016539747
0.00013587275
0.00010474555
7.9363245e-05
6.5545513e-05
4.1231631e-05
2.248976e-05
1.5415834e-05
1.2854708e-05
8.8789967e-06
5.3268691e-06
3.2121083e-06
1.8574596e-06
9.069257e-07
3.5927743e-07
1.2394268e-07
3.8416789e-08
1.0916914e-08
2.8521965e-09
6.7492367e-10
1.3986446e-10
2.3958884e-11
3.117673e-12
3.338425e-13
1.2006616e-13
1.2992386e-13
0.00060521384
0.00032321644
0.00019182389
0.00018555208
0.00016521473
0.00013571388
0.00010459872
7.9208728e-05
6.5361761e-05
4.1149116e-05
2.2439934e-05
1.5378749e-05
1.2818834e-05
8.8416002e-06
5.3035875e-06
3.1975992e-06
1.8484343e-06
9.0140395e-07
3.5685097e-07
1.2305223e-07
3.8132041e-08
1.0834955e-08
2.8307065e-09
6.6984023e-10
1.3881299e-10
2.3779401e-11
3.0947003e-12
3.3177083e-13
1.1964449e-13
1.2949996e-13
0.00060826561
0.00032528346
0.00019218423
0.00018533719
0.00016503261
0.00013555565
0.00010445211
7.9054724e-05
6.5178846e-05
4.1067005e-05
2.2390254e-05
1.5341723e-05
1.2783043e-05
8.8043764e-06
5.2804184e-06
3.1831597e-06
1.8394564e-06
8.9591783e-07
3.5444271e-07
1.2216895e-07
3.7849705e-08
1.0753704e-08
2.8094032e-09
6.6480108e-10
1.3777069e-10
2.3601472e-11
3.071925e-12
3.2971571e-13
1.1922498e-13
1.2907801e-13
0.00061134086
0.00032736428
0.00019255886
0.00018512249
0.00016485121
0.00013539804
0.00010430564
7.8901191e-05
6.4996779e-05
4.098531e-05
2.2340718e-05
1.5304748e-05
1.2747337e-05
8.7673213e-06
5.2573638e-06
3.1687872e-06
1.8305233e-06
8.9046516e-07
3.5205124e-07
1.2129235e-07
3.7569579e-08
1.0673095e-08
2.7882684e-09
6.5980154e-10
1.3673654e-10
2.3424928e-11
3.0493244e-12
3.2767508e-13
1.188072e-13
1.2865755e-13
0.00061443922
0.00032945867
0.00019294759
0.00018490832
0.00016467062
0.00013524104
0.00010415939
7.8748136e-05
6.4815508e-05
4.0904039e-05
2.2291325e-05
1.5267813e-05
1.2711712e-05
8.7304294e-06
5.2344141e-06
3.1544837e-06
1.8216374e-06
8.8504751e-07
3.4967726e-07
1.2042281e-07
3.7291805e-08
1.0593175e-08
2.767316e-09
6.5484511e-10
1.3571128e-10
2.3249903e-11
3.0269162e-12
3.2565072e-13
1.1839165e-13
1.2823916e-13
0.0006175603
0.00033156639
0.00019335031
0.00018469454
0.0001644909
0.00013508471
0.00010401332
7.8595566e-05
6.4634996e-05
4.0823204e-05
2.2242072e-05
1.5230909e-05
1.267616e-05
8.6937078e-06
5.2115688e-06
3.1402471e-06
1.8127974e-06
8.7966503e-07
3.4732062e-07
1.1956013e-07
3.7016307e-08
1.0513922e-08
2.746539e-09
6.4993021e-10
1.3469455e-10
2.3076332e-11
3.0046926e-12
3.2364149e-13
1.1797776e-13
1.2782221e-13
0.0006207037
0.00033368721
0.000193767
0.00018448082
0.00016431199
0.00013492891
0.00010386735
7.844348e-05
6.445526e-05
4.074282e-05
2.2192964e-05
1.5194023e-05
1.2640683e-05
8.6571532e-06
5.1888406e-06
3.1260784e-06
1.8040027e-06
8.7431667e-07
3.4498142e-07
1.1870431e-07
3.6743109e-08
1.0435346e-08
2.7259406e-09
6.4505763e-10
1.3368658e-10
2.290425e-11
2.9826588e-12
3.2164808e-13
1.1756583e-13
1.2740702e-13
0.00062386893
0.0003358209
0.00019419774
0.00018426681
0.0001641338
0.00013477365
0.0001037214
7.8291854e-05
6.4276307e-05
4.0662902e-05
2.2144004e-05
1.5157143e-05
1.2605285e-05
8.620761e-06
5.1662154e-06
3.111975e-06
1.7952524e-06
8.6900091e-07
3.4265852e-07
1.1785493e-07
3.647205e-08
1.0357393e-08
2.7055053e-09
6.4022355e-10
1.3268655e-10
2.273351e-11
2.9607958e-12
3.1966904e-13
1.1715586e-13
1.2699362e-13
0.00062705551
0.0003379672
0.00019464257
0.00018405295
0.00016395649
0.00013461894
0.00010357556
7.8140695e-05
6.4098091e-05
4.0583466e-05
2.2095196e-05
1.5120253e-05
1.2569961e-05
8.5845324e-06
5.1436917e-06
3.0979388e-06
1.7865483e-06
8.6371974e-07
3.4035278e-07
1.1701245e-07
3.6203286e-08
1.028011e-08
2.6852477e-09
6.354315e-10
1.3169524e-10
2.2564255e-11
2.9391211e-12
3.1770596e-13
1.1674813e-13
1.2658227e-13
0.00063026289
0.00034012586
0.00019510126
0.00018383942
0.00016378016
0.00013446482
0.00010342977
7.7990038e-05
6.3920598e-05
4.0504527e-05
2.2046547e-05
1.5083334e-05
1.253471e-05
8.5484666e-06
5.1212773e-06
3.0839672e-06
1.777888e-06
8.5847228e-07
3.3806364e-07
1.1617657e-07
3.5936707e-08
1.0203467e-08
2.6651583e-09
6.3067908e-10
1.3071208e-10
2.239639e-11
2.9176216e-12
3.1575713e-13
1.1634176e-13
1.2617202e-13
0.00063349053
0.0003422966
0.00019557379
0.00018362616
0.00016360496
0.00013431126
0.00010328394
7.7839855e-05
6.3743835e-05
4.0426099e-05
2.1998065e-05
1.5046364e-05
1.2499537e-05
8.512563e-06
5.098969e-06
3.0700605e-06
1.7692715e-06
8.5325747e-07
3.3579116e-07
1.1534722e-07
3.5672313e-08
1.0127467e-08
2.645239e-09
6.2596715e-10
1.2973726e-10
2.2229952e-11
2.8963038e-12
3.1382354e-13
1.1593737e-13
1.2576358e-13
0.00063673784
0.00034447913
0.00019605992
0.00018341272
0.00016343088
0.00013415819
0.00010313806
7.7690117e-05
6.3567785e-05
4.034801e-05
2.1949713e-05
1.5009409e-05
1.2464451e-05
8.4768123e-06
5.0767582e-06
3.0562184e-06
1.7606987e-06
8.4807465e-07
3.3353467e-07
1.1452415e-07
3.5410005e-08
1.0052076e-08
2.6254792e-09
6.212928e-10
1.2877018e-10
2.2064831e-11
2.8751537e-12
3.1190412e-13
1.1553498e-13
1.25357e-13
0.00064000424
0.00034667317
0.00019655958
0.00018319881
0.00016325791
0.00013400564
0.00010299219
7.7540824e-05
6.3392415e-05
4.0270088e-05
2.1901455e-05
1.4972541e-05
1.242945e-05
8.4412196e-06
5.054648e-06
3.0424401e-06
1.7521704e-06
8.4292546e-07
3.3129474e-07
1.1370773e-07
3.5149906e-08
9.9773318e-09
2.6058905e-09
6.1665912e-10
1.2781155e-10
2.1901141e-11
2.8541865e-12
3.1000008e-13
1.1513464e-13
1.2495231e-13
0.00064328911
0.00034887846
0.00019707267
0.00018298599
0.00016308594
0.00013385335
0.00010284638
7.7392002e-05
6.3217725e-05
4.0192327e-05
2.1853287e-05
1.4935758e-05
1.239453e-05
8.4057806e-06
5.0326454e-06
3.0287242e-06
1.7436836e-06
8.3780835e-07
3.290706e-07
1.1289758e-07
3.4891886e-08
9.9031928e-09
2.5864611e-09
6.1206302e-10
1.268607e-10
2.1738774e-11
2.8333869e-12
3.0810978e-13
1.1473575e-13
1.2454879e-13
0.00064659184
0.00035109472
0.00019759904
0.00018277412
0.00016291485
0.00013370099
0.00010270065
7.7243656e-05
6.3043734e-05
4.0114725e-05
2.1805206e-05
1.4899059e-05
1.2359693e-05
8.370493e-06
5.0107393e-06
3.0150718e-06
1.7352398e-06
8.3272298e-07
3.2686262e-07
1.1209377e-07
3.4635981e-08
9.8296768e-09
2.5671968e-09
6.0750596e-10
1.2591792e-10
2.1577786e-11
2.8127619e-12
3.0623435e-13
1.1433898e-13
1.2414724e-13
0.0006499118
0.00035332166
0.00019813882
0.00018256371
0.00016274406
0.00013354836
0.00010255522
7.7095788e-05
6.2870414e-05
4.0037276e-05
2.1757207e-05
1.486244e-05
1.2324939e-05
8.3353536e-06
4.9889268e-06
3.0014814e-06
1.726839e-06
8.2766909e-07
3.2467035e-07
1.112961e-07
3.4382111e-08
9.7567546e-09
2.5480885e-09
6.0298587e-10
1.2498271e-10
2.1418092e-11
2.7923011e-12
3.0437278e-13
1.1394412e-13
1.2374745e-13
0.00065324837
0.00035555897
0.00019869181
0.00018235423
0.00016257307
0.00013339571
0.00010241013
7.6948396e-05
6.2697733e-05
3.9959974e-05
2.1709287e-05
1.4825901e-05
1.2290266e-05
8.3003645e-06
4.9672197e-06
2.9879525e-06
1.7184803e-06
8.2264745e-07
3.2249389e-07
1.1050475e-07
3.4130347e-08
9.6844509e-09
2.529143e-09
5.9850438e-10
1.240555e-10
2.1259764e-11
2.7720144e-12
3.0252566e-13
1.1355097e-13
1.2334916e-13
0.00065660092
0.00035780638
0.00019925814
0.00018214527
0.00016240196
0.00013324304
0.00010226531
7.680145e-05
6.252568e-05
3.9882814e-05
2.1661439e-05
1.4789438e-05
1.2255666e-05
8.265524e-06
4.9456076e-06
2.9744827e-06
1.7101612e-06
8.1765634e-07
3.2033242e-07
1.0971936e-07
3.388055e-08
9.6127204e-09
2.5103487e-09
5.9405872e-10
1.231357e-10
2.1102691e-11
2.7518879e-12
3.0069173e-13
1.131593e-13
1.2295217e-13
0.00065996881
0.00036006359
0.00019983768
0.00018193711
0.00016223066
0.00013309036
0.0001021207
7.6654926e-05
6.2354258e-05
3.9805791e-05
2.1613661e-05
1.475305e-05
1.2221143e-05
8.2308251e-06
4.9240873e-06
2.9610753e-06
1.7018843e-06
8.1269615e-07
3.1818662e-07
1.0894014e-07
3.3632806e-08
9.5415904e-09
2.4917131e-09
5.8965066e-10
1.2222372e-10
2.0946949e-11
2.7319313e-12
2.9887245e-13
1.1276992e-13
1.2255732e-13
0.0006633514
0.0003623303
0.00020043023
0.00018173003
0.00016205928
0.00013293775
0.00010197642
7.6508848e-05
6.218345e-05
3.97289e-05
2.156595e-05
1.4716735e-05
1.2186698e-05
8.1962712e-06
4.9026614e-06
2.9477261e-06
1.6936482e-06
8.0776605e-07
3.1605587e-07
1.0816674e-07
3.3386992e-08
9.4710243e-09
2.4732262e-09
5.8527752e-10
1.2131894e-10
2.0792433e-11
2.7121299e-12
2.9706623e-13
1.1238228e-13
1.2216401e-13
0.00066674808
0.00036460619
0.00020103559
0.00018152418
0.00016188782
0.00013278515
0.0001018324
7.6363228e-05
6.201325e-05
3.9652139e-05
2.1518304e-05
1.468049e-05
1.2152326e-05
8.161861e-06
4.8813343e-06
2.9344354e-06
1.6854518e-06
8.0286656e-07
3.1394003e-07
1.0739929e-07
3.3143159e-08
9.4010397e-09
2.4548928e-09
5.80941e-10
1.2042169e-10
2.063921e-11
2.6924922e-12
2.9527369e-13
1.1199629e-13
1.2177213e-13
0.00067015821
0.00036689095
0.00020165352
0.00018131902
0.00016171624
0.00013263253
0.0001016886
7.6218033e-05
6.1843664e-05
3.9575503e-05
2.1470717e-05
1.4644315e-05
1.2118022e-05
8.1275902e-06
4.8600945e-06
2.9212022e-06
1.6772936e-06
7.9799642e-07
3.1183859e-07
1.0663756e-07
3.2901211e-08
9.3316066e-09
2.4367042e-09
5.766387e-10
1.1953152e-10
2.0487196e-11
2.6730087e-12
2.9349397e-13
1.1161182e-13
1.2138157e-13
0.0006735811
0.00036918425
0.00020228425
0.00018111431
0.00016154442
0.00013247982
0.00010154499
7.6073231e-05
6.1674673e-05
3.9498988e-05
2.1423188e-05
1.4608206e-05
1.2083787e-05
8.0934547e-06
4.8389422e-06
2.9080277e-06
1.6691766e-06
7.9315627e-07
3.0975228e-07
1.0588179e-07
3.2661245e-08
9.2627528e-09
2.418669e-09
5.7237294e-10
1.1864893e-10
2.0336472e-11
2.6536906e-12
2.9172837e-13
1.1122945e-13
1.2099295e-13
0.00067701609
0.00037148577
0.00020292761
0.00018091008
0.00016137228
0.00013232706
0.00010140165
7.5928851e-05
6.1506255e-05
3.942259e-05
2.1375711e-05
1.4572162e-05
1.2049624e-05
8.0594575e-06
4.8178864e-06
2.8949088e-06
1.6610978e-06
7.8834462e-07
3.0768026e-07
1.0513155e-07
3.2423109e-08
9.1944313e-09
2.4007734e-09
5.6814012e-10
1.1777317e-10
2.0186906e-11
2.6345204e-12