/*--------------------------------*- C++ -*----------------------------------*\
| =========                 |                                                 |
| \\      /  F ield         | OpenFOAM: The Open Source CFD Toolbox           |
|  \\    /   O peration     | Version:  v2012                                 |
|   \\  /    A nd           | Website:  www.openfoam.com                      |
|    \\/     M anipulation  |                                                 |
\*---------------------------------------------------------------------------*/
FoamFile
{
    version     2.0;
    format      ascii;
    class       volScalarField;
    location    "850";
    object      k;
}
// * * * * * * * * * * * * * * * * * * * * * * * * * * * * * * * * * * * * * //

dimensions      [0 2 -2 0 0 0 0];


internalField   nonuniform List<scalar> 
24000
(
0.12224958
0.16713534
0.34257096
0.81145768
1.542209
2.3068378
2.7677348
2.7318153
2.3399827
1.8567627
1.9013785
2.8714723
4.2784692
5.3415377
5.5086253
4.876438
3.7280663
2.4514567
1.3970977
0.7209218
0.34861431
0.1604695
0.070305248
0.02897847
0.010985605
0.0036906077
0.0010438423
0.00027674262
0.00031188804
0.0021792184
0.12266067
0.16721859
0.34085838
0.80631828
1.5341194
2.2976614
2.7596955
2.7262213
2.3360835
1.8532118
1.8970521
2.8646234
4.2687002
5.3279755
5.4924213
4.8591647
3.7121788
2.4391533
1.389207
0.71655046
0.34641751
0.15943881
0.069849995
0.028790384
0.010914317
0.0036666399
0.0010369241
0.00027445713
0.00030787776
0.0021500654
0.12309723
0.1673278
0.33922561
0.8015517
1.526848
2.2897919
2.7530547
2.7215824
2.3323656
1.8495015
1.892674
2.8580548
4.2591416
5.313767
5.4745853
4.8394906
3.6935057
2.4239375
1.3792195
0.71097328
0.3436116
0.1581227
0.069268447
0.028549883
0.010823115
0.0036361149
0.0010285444
0.00027295434
0.00030842521
0.0021555538
0.12354114
0.16744756
0.33762897
0.79684363
1.5196322
2.2819466
2.7463343
2.7167372
2.3284656
1.8456728
1.8883013
2.8515885
4.2495106
5.2993766
5.4567753
4.8205968
3.676624
2.4112202
1.3714196
0.70683625
0.34160291
0.15720205
0.068867424
0.028385419
0.010761014
0.0036153363
0.0010227478
0.00027162092
0.00030754923
0.0021498761
0.1239926
0.16757726
0.33605624
0.79217754
1.5124515
2.274137
2.7396178
2.7118522
2.3245177
1.8418067
1.883935
2.8452545
4.240066
5.2851113
5.4389946
4.8015997
3.659462
2.3980589
1.3631993
0.70240452
0.33942347
0.15619407
0.068425765
0.028203641
0.010692242
0.003592312
0.0010163459
0.00027021948
0.00030688746
0.0021459219
0.12445162
0.16771741
0.33450736
0.78755154
1.5053045
2.2663559
2.732905
2.7069416
2.3205356
1.8379146
1.8795781
2.8390171
4.2307547
5.2709646
5.4212837
4.7826394
3.6423315
2.3849457
1.3550258
0.698006
0.33726328
0.15519588
0.067988624
0.028023766
0.010624192
0.0035695257
0.001010003
0.00026881158
0.00030614974
0.0021413835
0.12491819
0.16786801
0.33298118
0.78296367
1.49819
2.2586015
2.726201
2.7020198
2.3165357
1.8340093
1.875233
2.8328567
4.221555
5.256919
5.403626
4.7636875
3.6251795
2.3717997
1.3468244
0.69358899
0.33509255
0.15419234
0.06754899
0.027842828
0.010555732
0.0035465997
0.0010036203
0.00026739303
0.00030539996
0.0021367621
0.12539222
0.16802894
0.33147701
0.77841276
1.4911072
2.2508718
2.7195066
2.6970925
2.3125259
1.8300978
1.8708994
2.8267537
4.2124375
5.2429489
5.3860163
4.74476
3.60804
2.3586636
1.3386302
0.68917589
0.33292354
0.15318946
0.067109596
0.02766197
0.010487296
0.0035236801
0.00099723799
0.00026597156
0.00030463758
0.0021320459
0.1258736
0.16819999
0.32999413
0.77389792
1.4840554
2.2431651
2.7128223
2.6921631
2.3085109
1.8261852
1.8665773
2.8206938
4.2033812
5.2290352
5.3684471
4.7258635
3.5909277
2.3455535
1.3304552
0.68477386
0.33076003
0.15218908
0.066671274
0.027481544
0.010419021
0.0035008135
0.00099086965
0.00026455118
0.00030386843
0.0021272769
0.12636216
0.16838092
0.32853188
0.76941852
1.4770343
2.2354802
2.7061478
2.6872336
2.3044939
1.8222748
1.8622665
2.8146678
4.194371
5.2151644
5.3509128
4.7070029
3.5738545
2.3324821
1.3223086
0.6803882
0.32860463
0.1511924
0.06623454
0.02730176
0.010350984
0.0034780253
0.00098452237
0.00026313383
0.00030309496
0.0021224721
0.12685777
0.1685719
0.32709411
0.76497204
1.4700434
2.2278161
2.6994829
2.6823055
2.3004778
1.8183688
1.8579668
2.8086693
4.1853963
5.2013278
5.3334129
4.688183
3.5568286
2.3194581
1.3141972
0.67602292
0.32645945
0.15020045
0.065799863
0.027122816
0.010283263
0.0034553421
0.00097820373
0.0002617215
0.00030231928
0.002117646
0.12736023
0.16877276
0.32568171
0.76055755
1.4630825
2.2201718
2.6928275
2.6773797
2.2964641
1.8144685
1.8536783
2.8026937
4.1764509
5.1875196
5.3159452
4.6694059
3.539854
2.3064863
1.3061241
0.67167988
0.32432546
0.14921367
0.06536744
0.026944794
0.010215889
0.0034327741
0.00097191665
0.00026031507
0.00030154262
0.0021128075
0.12786937
0.16898322
0.32429423
0.75617456
1.456151
2.2125466
2.6861813
2.6724566
2.2924536
1.8105752
1.8494007
2.796738
4.1675305
5.1737352
5.2985067
4.6506731
3.5229354
2.2935713
1.2980929
0.66736135
0.32220391
0.14823268
0.064937554
0.026767811
0.010148907
0.0034103369
0.00096566553
0.00025891571
0.00030076629
0.002107966
0.12838498
0.16920297
0.32293123
0.75182274
1.4492488
2.2049398
2.6795441
2.6675364
2.2884468
1.8066896
1.8451342
2.7908002
4.1586311
5.1599729
5.2810992
4.6319865
3.5060746
2.2807145
1.2901043
0.66306735
0.32009466
0.14725739
0.064510144
0.026591839
0.010082303
0.0033880257
0.00095944907
0.00025752321
0.00029999052
0.0021031231
0.12890688
0.16943172
0.32159229
0.74750167
1.4423755
2.1973508
2.6729158
2.6626195
2.284444
1.8028125
1.8408789
2.7848789
4.1497501
5.1462304
5.2637223
4.6133476
3.4892737
2.2679184
1.2821603
0.65879935
0.31799855
0.14628822
0.064085417
0.02641697
0.010016116
0.0033658532
0.00095327091
0.00025613851
0.00029921639
0.0020982865
0.12943487
0.16966915
0.320277
0.74321106
1.4355309
2.1897789
2.666296
2.6577062
2.2804457
1.7989442
1.8366348
2.7789733
4.1408871
5.1325068
5.246374
4.5947567
3.4725344
2.2551848
1.2742619
0.65455773
0.31591574
0.14532523
0.063663388
0.026243204
0.0099503437
0.0033438188
0.00094713074
0.00025476147
0.00029844356
0.0020934535
0.12996874
0.16991494
0.318985
0.73895057
1.4287146
2.1822238
2.6596849
2.6527966
2.2764524
1.7950849
1.8324018
2.7730824
4.1320405
5.1188018
5.2290565
4.576215
3.4558575
2.2425138
1.2664093
0.65034274
0.31384642
0.14436853
0.063244114
0.02607057
0.0098849989
0.0033219272
0.00094103001
0.00025339259
0.00029767282
0.0020886298
0.13050828
0.17016877
0.31771597
0.73471994
1.4219265
2.1746849
2.653082
2.6478906
2.2724641
1.7912347
1.8281799
2.7672056
4.1232081
5.1051142
5.2117702
4.5577236
3.4392435
2.2299055
1.2586022
0.64615388
0.31179022
0.1434179
0.062827487
0.025899017
0.0098200604
0.0033001709
0.00093496661
0.00025203148
0.00029690426
0.0020838167
0.13105329
0.17043026
0.31646955
0.7305189
1.4151663
2.1671616
2.6464872
2.6429885
2.268481
1.7873939
1.8239692
2.7613427
4.1143898
5.0914444
5.1945135
4.5392828
3.4226943
2.2173624
1.2508425
0.64199249
0.30974788
0.14247373
0.062413689
0.025728625
0.009755559
0.0032785603
0.00092894348
0.00025067876
0.00029613817
0.0020790159
0.13160352
0.17069904
0.31524544
0.72634719
1.4084338
2.1596536
2.6399006
2.6380903
2.2645033
1.7835624
1.8197697
2.7554934
4.1055858
5.0777924
5.1772884
4.5208934
3.4062099
2.2048838
1.2431293
0.63785793
0.30771904
0.14153582
0.06200262
0.02555935
0.0096914771
0.0032570892
0.00092295878
0.0002493339
0.0002953739
0.0020742227
0.13215874
0.17097465
0.31404339
0.72220461
1.4017286
2.1521604
2.6333218
2.6331961
2.260531
1.7797404
1.8155815
2.7496574
4.0967948
5.0641585
5.1600962
4.5025564
3.3897908
2.1924695
1.2354628
0.63375038
0.30570386
0.14060428
0.061594351
0.025391226
0.0096278305
0.0032357635
0.00091701427
0.00024799753
0.00029461256
0.0020694448
0.13271871
0.1712566
0.3128632
0.7180909
1.3950506
2.1446816
2.6267507
2.6283057
2.2565642
1.7759281
1.8114046
2.7438345
4.0880156
5.050543
5.1429354
4.484272
3.3734372
2.1801201
1.227843
0.62966955
0.30370208
0.13967894
0.061188779
0.025224203
0.009564598
0.0032145755
0.0009111078
0.00024666912
0.00029385368
0.0020646796
0.13328314
0.17154425
0.31170475
0.71400589
1.3883995
2.1372167
2.6201873
2.6234191
2.252603
1.7721255
1.8072389
2.738025
4.0792491
5.036946
5.1258071
4.4660409
3.3571507
2.167837
1.2202709
0.62561614
0.3017141
0.13876003
0.060786017
0.025058333
0.0095017991
0.0031935322
0.00090524124
0.00024534906
0.00029309732
0.002059927
0.13385177
0.17183695
0.31056789
0.70994933
1.381775
2.1297654
2.6136313
2.6185365
2.2486473
1.7683327
1.8030844
2.7322285
4.0704947
5.0233685
5.1087138
4.4478641
3.3409304
2.1556184
1.2127448
0.62158919
0.2997394
0.13784727
0.060385949
0.024893565
0.0094394146
0.0031726269
0.00089941279
0.00024403692
0.0002923432
0.0020551851
0.13442438
0.17213461
0.30945216
0.70592103
1.375177
2.1223272
2.6070828
2.613658
2.2446973
1.7645498
1.7989411
2.7264446
4.0617492
5.0098111
5.091654
4.4297415
3.3247768
2.1434651
1.2052658
0.61758944
0.29777846
0.13694094
0.059988699
0.024729956
0.0093774681
0.0031518677
0.00089362479
0.00024273333
0.0002915921
0.0020504597
0.13500075
0.172437
0.30835717
0.70192078
1.3686051
2.1149019
2.6005415
2.6087833
2.240753
1.7607765
1.794809
2.7206741
4.053016
4.996274
5.0746279
4.4116736
3.3086906
2.1313774
1.1978334
0.6136161
0.29583071
0.13604069
0.059594091
0.024567425
0.0093159262
0.0031312429
0.00088787375
0.00024143737
0.00029084316
0.0020457445
0.13558064
0.1727439
0.30728252
0.69794834
1.3620591
2.107489
2.5940073
2.6039124
2.2368146
1.7570129
1.7906879
2.7149158
4.044289
4.9827577
5.0576381
4.3936615
3.2926723
2.1193553
1.1904477
0.60966957
0.29389644
0.13514672
0.059202235
0.024406024
0.0092548106
0.0031107604
0.00088216208
0.00024014978
0.00029009719
0.0020410452
0.13616383
0.17305514
0.30622774
0.69400347
1.3555387
2.1000881
2.5874801
2.5990453
2.2328819
1.7532589
1.7865778
2.7091708
4.0355748
4.9692624
5.040684
4.3757053
3.2767211
2.107398
1.1831081
0.60574946
0.29197545
0.13425891
0.058813074
0.024245727
0.0091941104
0.0030904165
0.00087648867
0.00023887018
0.00028935355
0.0020363574
0.1367501
0.17337048
0.3051924
0.69008593
1.3490437
2.092699
2.5809597
2.5941822
2.228955
1.7495144
1.7824786
2.7034394
4.0268757
4.9557885
5.0237646
4.3578048
3.2608381
2.0955068
1.1758156
0.60185633
0.29006804
0.13337744
0.058426687
0.024086569
0.0091338393
0.0030702156
0.00087085482
0.00023759885
0.00028861247
0.0020316828
0.1373392
0.17368971
0.30417607
0.6861955
1.3425739
2.0853213
2.574446
2.5893228
2.2250338
1.7457794
1.77839
2.6977213
4.0181917
4.9423349
5.0068827
4.339961
3.2450232
2.0836806
1.1685688
0.597989
0.28817348
0.13250188
0.058042871
0.02392846
0.0090739618
0.0030501454
0.00086525696
0.00023633504
0.0002878738
0.0020270205
0.13793091
0.1740126
0.30317835
0.68233189
1.3361289
2.0779547
2.5679387
2.5844668
2.2211182
1.742054
1.7743121
2.6920162
4.0095231
4.9289023
4.9900379
4.3221745
3.2292767
2.0719199
1.1613683
0.59414828
0.28629233
0.13163258
0.057661802
0.023771481
0.0090145116
0.0030302179
0.00085969858
0.00023507964
0.00028713836
0.0020223761
0.13852498
0.17433891
0.30219877
0.67849486
1.3297085
2.0705989
2.5614379
2.5796144
2.2172083
1.738338
1.7702448
2.6863241
4.0008699
4.9154918
4.9732287
4.3044445
3.2135982
2.0602241
1.1542139
0.59033379
0.28442432
0.13076938
0.057283396
0.023615592
0.0089554717
0.003010427
0.00085417789
0.000233832
0.00028640481
0.0020177399
0.13912119
0.17466842
0.30123689
0.67468409
1.3233125
2.0632537
2.5549433
2.5747655
2.2133039
1.7346316
1.7661878
2.6806447
3.9922314
4.9021023
4.9564573
4.2867718
3.1979883
2.0485939
1.1471056
0.58654558
0.28256951
0.12991231
0.05690768
0.023460807
0.0088968479
0.0029907752
0.00084869561
0.00023259243
0.0002856738
0.0020131168
0.13971928
0.17500088
0.30029226
0.67089932
1.3169405
2.0559188
2.5484548
2.5699201
2.209405
1.7309347
1.7621409
2.6749779
3.9836076
4.8887338
4.9397242
4.2691568
3.1824465
2.0370279
1.140042
0.58278257
0.28072725
0.12906103
0.05653448
0.023307049
0.0088386094
0.0029712514
0.00084324872
0.0002313604
0.00028494564
0.0020085096
0.14031902
0.17533602
0.29936446
0.66714023
1.3105923
2.048594
2.5419725
2.5650778
2.2055115
1.7272471
1.7581038
2.6693232
3.9749991
4.8753871
4.9230274
4.2515993
3.1669734
2.0255273
1.1330247
0.57904607
0.27889835
0.12821599
0.056164021
0.02315442
0.0087807975
0.00295187
0.00083784125
0.00023013669
0.00028422042
0.0020039182
0.14092016
0.17567362
0.29845308
0.66340649
1.3042676
2.041279
2.5354959
2.5602386
2.2016233
1.7235688
1.7540765
2.6636802
3.9664052
4.8620625
4.9063686
4.2340992
3.1515683
2.0140909
1.1260523
0.57533499
0.27708214
0.12737682
0.055796123
0.023002839
0.0087233798
0.0029326197
0.00083246983
0.00022892025
0.00028349651
0.001999331
0.14152246
0.1760134
0.29755761
0.65969777
1.2979662
2.0339737
2.5290253
2.5554025
2.1977403
1.7198996
1.7500586
2.6580488
3.9578249
4.8487585
4.8897484
4.2166572
3.1362316
2.002719
1.119125
0.57164957
0.27527882
0.12654366
0.05543086
0.022852341
0.0086663718
0.0029135065
0.00082713636
0.00022771192
0.00028277572
0.001994761
0.14212567
0.17635509
0.29667765
0.65601379
1.2916877
2.0266777
2.5225604
2.5505694
2.1938624
1.7162394
1.74605
2.6524286
3.9492587
4.8354756
4.8731653
4.199273
3.1209632
1.9914111
1.1122423
0.56798919
0.27348798
0.12571626
0.055068108
0.022702869
0.0086097494
0.0028945217
0.0008218384
0.00022651116
0.00028205772
0.0019902064
0.14272954
0.17669842
0.29581279
0.65235425
1.2854319
2.019391
2.5161012
2.545739
2.1899895
1.7125882
1.7420504
2.6468191
3.9407067
4.8222148
4.8566193
4.1819461
3.1057628
1.9801676
1.1054047
0.56435463
0.27171013
0.12489492
0.05470802
0.022554494
0.008553541
0.0028756753
0.00081657875
0.00022531839
0.00028134202
0.0019856632
0.14333383
0.17704313
0.29496262
0.6487188
1.2791985
2.0121134
2.5096475
2.5409111
2.1861214
1.7089459
1.7380595
2.6412199
3.9321679
4.8089748
4.8401124
4.1646769
3.0906298
1.9689869
1.0986108
0.56074464
0.26994452
0.12407925
0.054350401
0.02240713
0.0084977131
0.0028569554
0.00081135398
0.00022413274
0.00028062784
0.0019811258
0.14393829
0.17738892
0.29412674
0.64510711
1.2729872
2.0048445
2.5031992
2.5360858
2.1822581
1.7053122
1.734077
2.6356305
3.9236413
4.7957547
4.8236429
4.1474657
3.0755651
1.9578702
1.0918614
0.55716002
0.26819168
0.12326954
0.05399541
0.02226085
0.0084422959
0.0028383729
0.00080616731
0.00022295526
0.00027991707
0.001976608
0.14454268
0.17773554
0.29330472
0.64151885
1.2667977
1.9975843
2.4967562
2.5312628
2.1783992
1.7016872
1.7301027
2.6300509
3.9151277
4.7825556
4.8072094
4.1303117
3.0605679
1.9468166
1.0851558
0.55359992
0.26645105
0.12246547
0.053642869
0.022115571
0.008387255
0.0028199157
0.00080101519
0.00022178501
0.00027920855
0.0019721017
0.14514674
0.17808268
0.29249611
0.63795365
1.2606297
1.9903324
2.4903183
2.5264417
2.1745449
1.6980708
1.7261363
2.6244802
3.9066266
4.7693775
4.7908148
4.1132152
3.0456379
1.9358258
1.078494
0.55006475
0.26472293
0.12166724
0.053292898
0.02197135
0.0083326144
0.0028015926
0.00079590019
0.00022062253
0.00027850229
0.0019676062
0.14575024
0.17843009
0.29170049
0.63441119
1.2544831
1.9830887
2.4838855
2.5216225
2.1706948
1.694463
1.7221776
2.6189181
3.8981373
4.756219
4.7744585
4.0961764
3.030775
1.9248971
1.071875
0.54655367
0.26300683
0.12087456
0.052945352
0.021828123
0.0082783476
0.0027833942
0.00079081969
0.00021946724
0.00027779803
0.0019631205
0.14635294
0.17877748
0.29091747
0.63089112
1.2483574
1.975853
2.4774575
2.5168051
2.1668488
1.6908636
1.7182262
2.6133643
3.8896594
4.7430802
4.7581378
4.0791952
3.0159804
1.9140323
1.0653003
0.54306779
0.26130342
0.12008782
0.052600426
0.021685978
0.0082244909
0.0027653329
0.00078577727
0.00021832009
0.00027709696
0.0019586527
0.1469546
0.17912461
0.2901466
0.6273931
1.2422525
1.9686251
2.4710342
2.5119893
2.1630069
1.6872725
1.7142817
2.6078184
3.881193
4.7299623
4.7418551
4.0622709
3.0012519
1.9032287
1.0587679
0.53960553
0.25961174
0.1193065
0.052257854
0.021544796
0.0081709963
0.002747392
0.000780768
0.00021717973
0.00027639756
0.0019541923
0.14755499
0.17947123
0.28938746
0.62391683
1.2361681
1.9614048
2.4646155
2.5071748
2.1591687
1.6836894
1.7103438
2.6022797
3.8727379
4.7168639
4.725611
4.045404
2.9865899
1.8924867
1.0522782
0.53616746
0.25793221
0.11853085
0.051917777
0.021404641
0.0081178913
0.0027295817
0.00077579491
0.00021604704
0.00027570082
0.001949746
0.1481539
0.17981707
0.28863962
0.620462
1.2301039
1.9541919
2.4582012
2.5023613
2.1553342
1.6801144
1.7064122
2.596748
3.8642936
4.703785
4.7094032
4.0285943
2.9719949
1.8818064
1.0458309
0.53275327
0.25626459
0.11776072
0.051580116
0.021265478
0.0080651603
0.0027118963
0.00077085639
0.00021492157
0.00027500622
0.0019453101
0.1487511
0.18016191
0.2879027
0.6170283
1.2240598
1.9469861
2.4517911
2.4975488
2.1515031
1.676547
1.7024865
2.5912229
3.8558597
4.6907258
4.6932317
4.0118415
2.9574668
1.8711884
1.0394266
0.52936348
0.25460925
0.11699633
0.051244987
0.021127361
0.0080128252
0.0026943437
0.00076595474
0.00021380392
0.00027431421
0.001940888
0.14934636
0.18050551
0.28717632
0.6136154
1.2180353
1.9397873
2.445385
2.4927371
2.1476753
1.6729873
1.6985664
2.5857043
3.8474365
4.6776868
4.677099
3.9951452
2.9430032
1.8606296
1.0330629
0.52599627
0.2529651
0.1162371
0.050912103
0.020990162
0.0079608351
0.0026769059
0.00076108482
0.00021269287
0.00027362408
0.001936475
0.14993948
0.18084766
0.28646005
0.610223
1.2120305
1.9325953
2.4389827
2.4879258
2.1438507
1.6694349
1.6946513
2.5801919
3.8390239
4.6646667
4.6610033
3.978506
2.9286059
1.8501317
1.0267413
0.52265285
0.2513329
0.11548345
0.050581677
0.020853978
0.0079092305
0.0026595971
0.00075625071
0.00021158947
0.00027293694
0.0019320789
0.15053025
0.18118815
0.28575347
0.60685081
1.206045
1.9254098
2.4325838
2.4831148
2.1400289
1.6658897
1.6907407
2.5746856
3.8306217
4.651666
4.644943
3.9619234
2.914275
1.8396948
1.0204614
0.51933289
0.2497124
0.11473523
0.050253628
0.020718769
0.007857994
0.0026424113
0.00075145054
0.00021049305
0.00027225155
0.0019276905
0.15111846
0.18152678
0.28505617
0.60349856
1.2000787
1.9182307
2.4261884
2.4783041
2.13621
1.6623514
1.6868341
2.5691858
3.8222294
4.6386849
4.6289206
3.9453971
2.9000093
1.8293183
1.0142231
0.51603637
0.24810369
0.11399253
0.049928008
0.020584565
0.0078071384
0.0026253533
0.00074668585
0.00020940409
0.00027156847
0.0019233137
0.15170392
0.18186337
0.28436781
0.60016597
1.1941314
1.9110576
2.4197961
2.4734932
2.1323936
1.6588199
1.6829309
2.5636931
3.8138476
4.6257226
4.6129359
3.9289267
2.8858073
1.8189996
1.0080241
0.51276182
0.24650586
0.11325484
0.049604577
0.020451256
0.00775662
0.0026084079
0.00074195239
0.00020832177
0.00027088768
0.0019189492
0.15228642
0.18219772
0.28368799
0.59685275
1.1882029
1.9038905
2.4134065
2.468682
2.1285798
1.655295
1.6790302
2.5582087
3.805477
4.6127791
4.596986
3.9125124
2.8716709
1.8087412
1.0018667
0.5095107
0.24491981
0.11252266
0.049283578
0.020318954
0.0077064832
0.0025915905
0.00073725453
0.00020724709
0.00027020984
0.0019146013
0.15286578
0.18252966
0.2830163
0.59355864
1.1822931
1.8967291
2.4070195
2.4638704
2.1247684
1.6517764
1.675131
2.5527348
3.7971171
4.5998547
4.5810725
3.8961537
2.857599
1.7985418
0.99574954
0.50628212
0.24334499
0.1117957
0.048964859
0.020187588
0.0076567003
0.0025748911
0.00073258927
0.00020617901
0.00026953317
0.001910257
0.15344181
0.182859
0.28235236
0.59028333
1.1764019
1.889573
2.4006348
2.4590584
2.1209593
1.6482639
1.6712318
2.5472742
3.7887674
4.5869487
4.5651961
3.8798498
2.8435901
1.7884004
0.9896721
0.50307597
0.24178144
0.111074
0.048648464
0.020057182
0.0076072822
0.0025583142
0.00072795797
0.00020511811
0.00026885906
0.0019059265
0.15401432
0.18318555
0.28169577
0.58702658
1.1705293
1.8824223
2.394252
2.4542456
2.1171525
1.6447574
1.6673355
2.5418245
3.7804277
4.5740603
4.5493547
3.8636006
2.8296439
1.7783159
0.98363338
0.49989137
0.24022859
0.11035725
0.048334226
0.019927661
0.0075581978
0.0025418488
0.00072335757
0.00020406383
0.00026818755
0.0019016105
0.15458313
0.18350914
0.28104621
0.5837881
1.1646752
1.8752764
2.3878708
2.4494319
2.1133479
1.6412567
1.6634452
2.5363818
3.7720971
4.5611893
4.5335473
3.8474061
2.815762
1.7682901
0.97763496
0.49672948
0.23868714
0.10964583
0.048022348
0.019799116
0.0075094838
0.0025255079
0.00071879184
0.00020301693
0.00026751858
0.0018973081
0.15514806
0.18382959
0.28040333
0.58056763
1.1588397
1.8681353
2.3814911
2.4446173
2.1095454
1.6377616
1.6595608
2.5309456
3.7637744
4.5483359
4.5177762
3.8312654
2.8019421
1.7583209
0.97167497
0.49358906
0.23715639
0.10893938
0.047712644
0.019671466
0.0074611082
0.0025092802
0.00071425748
0.00020197645
0.00026685081
0.0018930096
0.15570891
0.18414673
0.27976674
0.57736489
1.153023
1.8609984
2.3751124
2.4398017
2.105745
1.634272
1.6556821
2.5255157
3.7554591
4.5354986
4.5020399
3.8151783
2.7881838
1.7484084
0.96575368
0.49047048
0.23563661
0.10823806
0.047405201
0.019544752
0.0074130877
0.0024931715
0.00070975626
0.00020094312
0.00026618598
0.0018887281
0.15626553
0.18446039
0.27913607
0.57417959
1.1472238
1.8538675
2.3687346
2.4349847
2.1019465
1.6307878
1.6518088
2.5200919
3.7471518
4.5226773
4.4863358
3.7991443
2.7744873
1.7385518
0.9598705
0.48737312
0.23412737
0.10754162
0.047099894
0.019418913
0.0073653982
0.0024771734
0.00070528566
0.0001999163
0.00026552367
0.0018844606
0.15681772
0.18477041
0.27851097
0.57101153
1.1414402
1.8467451
2.3623576
2.4301664
2.0981499
1.6273087
1.6479408
2.5146739
3.738852
4.5098723
4.4706662
3.7831633
2.7608527
1.7287517
0.95402594
0.48429747
0.23262903
0.10685028
0.046796836
0.019294005
0.0073180623
0.002461294
0.00070084799
0.00019889636
0.00026486337
0.0018802029
0.15736531
0.18507659
0.27789115
0.56786047
1.135672
1.839631
2.3559813
2.4253469
2.0943551
1.6238346
1.6440777
2.5092614
3.730559
4.4970835
4.4550312
3.7672341
2.7472775
1.7190058
0.94821802
0.48124224
0.23114086
0.10616365
0.046495847
0.019169948
0.007271048
0.0024455225
0.00069644022
0.0001978826
0.00026420453
0.0018759512
0.15790813
0.1853788
0.27727631
0.56472625
1.129919
1.8325248
2.3496055
2.4205259
2.090562
1.6203653
1.6402195
2.5038545
3.7222726
4.4843096
4.4394281
3.7513567
2.7337624
1.709315
0.94244771
0.47820821
0.22966331
0.105482
0.046197054
0.019046801
0.0072243795
0.0024298673
0.00069206492
0.00019687595
0.00026354881
0.0018717177
0.158446
0.18567686
0.27666613
0.5616086
1.1241809
1.8254265
2.3432301
2.4157032
2.0867704
1.6169007
1.6363658
2.4984531
3.7139937
4.4715512
4.423857
3.7355305
2.7203069
1.6996779
0.9367138
0.4751944
0.22819582
0.104805
0.04590029
0.018924487
0.0071780253
0.002414317
0.00068771878
0.00019587548
0.00026289517
0.0018674951
0.15897875
0.18597062
0.27606027
0.55850735
1.1184576
1.8183358
2.336855
2.4108791
2.0829802
1.6134406
1.6325167
2.4930567
3.7057216
4.4588086
4.4083196
3.7197551
2.7069102
1.6900943
0.9310164
0.47220108
0.2267386
0.1041328
0.04560565
0.018803051
0.0071320054
0.0023988789
0.00068340381
0.00019488154
0.00026224349
0.001863282
0.15950622
0.1862599
0.27545844
0.55542233
1.1127489
1.8112525
2.3304801
2.4060533
2.0791914
1.6099849
1.6286719
2.4876654
3.6974557
4.4460811
4.3928147
3.7040298
2.6935708
1.680563
0.92535421
0.46922736
0.22529113
0.10346512
0.045312992
0.018682432
0.0070862948
0.0023835445
0.00067911757
0.00019389359
0.00026159351
0.001859077
0.16002823
0.18654454
0.27486036
0.5523533
1.1070545
1.8041765
2.3241053
2.4012258
2.075404
1.6065335
1.6248313
2.4822792
3.6891962
4.4333679
4.3773397
3.6883544
2.6802898
1.6710851
0.91972845
0.46627416
0.22385397
0.10280229
0.045022474
0.018562699
0.0070409212
0.0023683235
0.00067486296
0.00019291249
0.00026094648
0.0018548887
0.16054463
0.18682437
0.2742658
0.54930012
1.1013742
1.7971076
2.3177303
2.3963965
2.0716179
1.6030864
1.6209946
2.4768979
3.6809435
4.4206697
4.361897
3.6727285
2.6670659
1.6616583
0.91413718
0.4633401
0.2224263
0.10214383
0.044733873
0.018443755
0.0069958453
0.0023532024
0.0006706361
0.00019193723
0.00026030104
0.0018507073
0.16105523
0.18709927
0.27367448
0.54626253
1.0957079
1.7900455
2.3113551
2.3915655
2.0678331
1.5996433
1.6171616
2.471521
3.6726968
4.4079863
4.3464865
3.657151
2.653898
1.6522824
0.90858061
0.46042548
0.22100838
0.10148994
0.044447287
0.018325646
0.0069510876
0.0023381883
0.0006664392
0.0001909684
0.00025965787
0.0018465378
0.16155989
0.18736913
0.27308609
0.54324038
1.0900553
1.7829902
2.3049794
2.3867327
2.0640495
1.5962043
1.6133322
2.4661483
3.6644555
4.3953167
4.3311055
3.6416216
2.6407856
1.6429573
0.90305818
0.45752984
0.2195999
0.10084043
0.044162626
0.018208329
0.0069066299
0.0023232747
0.00066227024
0.00019000549
0.00025901658
0.0018423774
0.16205845
0.18763442
0.27250037
0.54023347
1.0844162
1.7759412
2.2986032
2.3818979
2.0602672
1.5927691
1.6095063
2.4607799
3.6562195
4.3826602
4.315754
3.6261406
2.6277296
1.6336835
0.89757065
0.45465386
0.21820132
0.10019557
0.043880018
0.018091864
0.0068624972
0.0023084705
0.00065813181
0.00018904917
0.00025837794
0.0018382312
0.16255074
0.18789498
0.2719171
0.53724163
1.0787905
1.7688987
2.2922263
2.3770612
2.0564861
1.5893377
1.6056837
2.4554153
3.6479889
4.3700177
4.3004336
3.6107065
2.6147278
1.6244581
0.89211572
0.4517959
0.21681164
0.09955482
0.043599212
0.017976139
0.0068186445
0.0022937602
0.00065401942
0.00018809828
0.00025774082
0.0018340914
0.16303662
0.18815065
0.27133606
0.53426473
1.073178
1.7618622
2.2858486
2.3722228
2.0527063
1.5859101
1.6018643
2.4500544
3.6397633
4.3573885
4.2851428
3.5953191
2.6017801
1.615282
0.88669428
0.44895671
0.21543138
0.098918475
0.043320353
0.017861223
0.0067750992
0.0022791536
0.00064993607
0.00018715374
0.00025710632
0.0018299656
0.16351594
0.18840129
0.27075705
0.53130256
1.0675784
1.7548317
2.2794699
2.3673824
2.0489277
1.5824861
1.5980478
2.444697
3.6315422
4.3447716
4.2698794
3.5799779
2.5888861
1.606155
0.8813059
0.44613588
0.21406026
0.098286378
0.043043356
0.017747074
0.006731845
0.0022646449
0.0006458801
0.00018621507
0.00025647375
0.0018258486
0.16398855
0.18864672
0.2701798
0.52835499
1.0619918
1.747807
2.2730901
2.36254
2.0451504
1.5790657
1.5942341
2.4393429
3.6233253
4.3321668
4.2546453
3.564683
2.5760461
1.597077
0.8759507
0.4433337
0.21269852
0.097658682
0.04276831
0.017633735
0.0066888998
0.0022502404
0.00064185335
0.00018528275
0.00025584353
0.0018217433
0.16445431
0.18888682
0.26960409
0.52542185
1.0564177
1.7407878
2.2667091
2.3576958
2.0413743
1.5756487
1.5904229
2.4339917
3.6151124
4.3195746
4.2394403
3.5494328
2.5632577
1.5880451
0.87062643
0.4405486
0.21134522
0.097034884
0.042494967
0.017521096
0.0066462197
0.0022359247
0.00063785138
0.00018435573
0.00025521505
0.0018176454
0.16491307
0.18912142
0.26902972
0.52250302
1.0508563
1.733774
2.2603266
2.3528497
2.0375994
1.5722352
1.5866142
2.4286433
3.6069034
4.306994
4.2242619
3.5342272
2.5505217
1.5790611
0.86533472
0.43778174
0.21000106
0.096415365
0.042223517
0.017409242
0.0066038396
0.0022217103
0.00063387776
0.00018343494
0.00025458941
0.0018135626
0.1653647
0.1893504
0.26845652
0.51959839
1.0453071
1.7267655
2.2539426
2.3480017
2.0338259
1.568825
1.5828078
2.4232976
3.5986978
4.2944244
4.2091102
3.5190661
2.5378373
1.5701242
0.86007471
0.43503247
0.20866564
0.095799903
0.041953851
0.017298124
0.0065617382
0.0022075898
0.00062993035
0.00018251973
0.00025396544
0.0018094861
0.16580906
0.18957362
0.26788434
0.51670779
1.0397703
1.719762
2.2475568
2.3431519
2.0300537
1.5654182
1.5790037
2.4179543
3.5904953
4.2818657
4.1939863
3.5039487
2.5252041
1.5612337
0.85484598
0.43230074
0.20733905
0.095188592
0.041686022
0.017187772
0.0065199291
0.0021935682
0.00062601077
0.00018161062
0.00025334382
0.0018054205
0.16624604
0.18979098
0.26731299
0.51383115
1.0342455
1.7127634
2.2411692
2.3383003
2.026283
1.5620146
1.5752015
2.4126132
3.5822959
4.2693183
4.178889
3.4888737
2.5126201
1.552387
0.84964657
0.42958519
0.20602045
0.094580969
0.041419806
0.017078083
0.0064783714
0.0021796313
0.00062211507
0.00018070681
0.00025272433
0.0018013644
0.16667551
0.19000235
0.26674227
0.5109683
1.0287328
1.7057695
2.2347795
2.3334468
2.0225137
1.5586142
1.5714012
2.4072741
3.5740995
4.2567811
4.1638163
3.4738414
2.5000863
1.5435864
0.84447859
0.42688724
0.20471068
0.093977482
0.041155421
0.016969153
0.0064371041
0.0021657924
0.00061824702
0.00017980922
0.00025210777
0.0017973232
0.16709735
0.19020762
0.26617201
0.50811918
1.0232318
1.69878
2.2283876
2.3285916
2.018746
1.5552171
1.5676025
2.4019368
3.5659055
4.2442537
4.1487697
3.4588517
2.4876021
1.5348311
0.83934091
0.42420606
0.20340923
0.093377856
0.040892733
0.016860923
0.006396103
0.0021520431
0.00061440406
0.00017891698
0.00025149267
0.0017932858
0.16751146
0.19040667
0.26560208
0.50528371
1.0177427
1.691795
2.2219933
2.3237348
2.01498
1.5518232
1.5638053
2.396601
3.5577132
4.231736
4.1337489
3.4439032
2.4751666
1.5261198
0.83423291
0.42154153
0.20211615
0.092782163
0.040631791
0.016753422
0.0063553805
0.0021383884
0.00061058773
0.00017803063
0.0002508801
0.0017892597
0.16791773
0.1905994
0.26503237
0.50246176
1.0122652
1.684814
2.2155965
2.3188763
2.0112158
1.5484325
1.5600094
2.3912664
3.5495229
4.2192279
4.1187518
3.4289951
2.4627782
1.5174506
0.82915311
0.41889255
0.20083077
0.092190028
0.040372405
0.016646561
0.006314901
0.0021248158
0.00060679452
0.0001771495
0.00025026994
0.0017852444
0.16831605
0.19078573
0.26446278
0.49965332
1.0067993
1.6778371
2.209197
2.3140161
2.0074535
1.5450449
1.5562146
2.3859327
3.5413344
4.2067284
4.1037782
3.4141277
2.4504379
1.5088258
0.82410342
0.41626044
0.19955386
0.091601865
0.040114779
0.016540433
0.0062747015
0.0021113382
0.00060302828
0.00017627449
0.00024966263
0.0017812422
0.16870634
0.19096556
0.26389315
0.49685823
1.0013449
1.670864
2.2027945
2.3091546
2.003693
1.5416605
1.5524209
2.3805997
3.5331468
4.1942372
4.0888292
3.3993007
2.4381449
1.500244
0.81908257
0.41364426
0.19828484
0.091017366
0.039858763
0.016434969
0.0062347551
0.0020979462
0.00059928621
0.00017540474
0.00024905673
0.0017772423
0.16908852
0.19113881
0.26332334
0.4940765
0.99590198
1.6638946
2.1963889
2.3042914
1.9999345
1.5382794
1.548628
2.3752669
3.5249593
4.181754
4.0739033
3.3845124
2.4258984
1.4917043
0.81409014
0.41104399
0.19702381