/*--------------------------------*- C++ -*----------------------------------*\
| =========                 |                                                 |
| \\      /  F ield         | OpenFOAM: The Open Source CFD Toolbox           |
|  \\    /   O peration     | Version:  v2012                                 |
|   \\  /    A nd           | Website:  www.openfoam.com                      |
|    \\/     M anipulation  |                                                 |
\*---------------------------------------------------------------------------*/
FoamFile
{
    version     2.0;
    format      ascii;
    class       volScalarField;
    location    "850";
    object      Ma;
}
// * * * * * * * * * * * * * * * * * * * * * * * * * * * * * * * * * * * * * //

dimensions      [0 0 0 0 0 0 0];


internalField   nonuniform List<scalar> 
24000
(
0.045725276
0.046123597
0.047339232
0.049061037
0.049668854
0.048520316
0.046474512
0.044291499
0.042186087
0.039858271
0.036828224
0.033240067
0.029707238
0.026344323
0.022963045
0.019606101
0.016466811
0.013637364
0.011154095
0.009032186
0.0072540806
0.005775581
0.0045481866
0.0035287281
0.0026812069
0.0019760747
0.0013890885
0.00090028997
0.00049319358
0.00015414466
0.04570538
0.046103517
0.047315645
0.049038841
0.04965441
0.048508687
0.046460098
0.044272699
0.042162753
0.039831658
0.036800873
0.033212816
0.029679729
0.026315241
0.022932346
0.019575008
0.016435871
0.01360687
0.011124463
0.009003915
0.0072276765
0.005751559
0.0045269898
0.0035106502
0.0026663629
0.0019644212
0.0013804628
0.00089445604
0.00048987921
0.00015307024
0.045688222
0.04608318
0.047286201
0.049005776
0.049627029
0.048485957
0.046437691
0.044249519
0.042138377
0.039806433
0.036776736
0.033189944
0.029657836
0.02629318
0.022909827
0.019553626
0.016417001
0.013591333
0.011112725
0.0089959811
0.0072229729
0.0057492856
0.0045263586
0.0035110046
0.0026672115
0.0019654214
0.0013813936
0.00089518668
0.00049034057
0.00015323403
0.045670153
0.046062621
0.047258144
0.048975782
0.049603361
0.04846643
0.046417521
0.044227316
0.042113801
0.039780158
0.036750757
0.033164707
0.029633214
0.026268128
0.022884486
0.019529787
0.016395771
0.013573105
0.011097574
0.0089836729
0.0072130707
0.0057413529
0.0045200465
0.0035060464
0.0026633945
0.0019625732
0.0013793683
0.00089385975
0.00048960628
0.00015300185
0.045651992
0.046041998
0.047230172
0.048945906
0.04957987
0.048446992
0.046397222
0.044204838
0.042088892
0.039753535
0.03672433
0.033138991
0.029608222
0.026242874
0.022859092
0.019505959
0.01637459
0.013554975
0.011082609
0.0089717168
0.0072036976
0.0057340829
0.0045144613
0.0035018069
0.0026602335
0.0019602805
0.0013777785
0.00089284096
0.00048905376
0.00015283079
0.045633722
0.046021379
0.047202418
0.048916418
0.049556789
0.048427878
0.046377121
0.044182411
0.042063945
0.039726796
0.036697652
0.033112952
0.029582848
0.026217219
0.022833272
0.01948169
0.016352941
0.013536375
0.011067172
0.0089592976
0.0071938713
0.0057263861
0.004508489
0.0034972299
0.0026567911
0.0019577641
0.0013760212
0.00089170841
0.00048843591
0.00015263838
0.045615413
0.046000788
0.047174812
0.048887066
0.049533876
0.048408933
0.046357127
0.044160013
0.042038968
0.039699991
0.036670825
0.033086702
0.029557252
0.026191329
0.022807193
0.019457154
0.016331039
0.013517526
0.011051521
0.0089466921
0.0071838885
0.0057185631
0.0045024162
0.0034925755
0.0026532901
0.0019552051
0.0013742345
0.00089055669
0.00048780766
0.00015244287
0.045597093
0.045980235
0.047147313
0.048857828
0.049511068
0.048390074
0.046337178
0.044137638
0.042013987
0.039673155
0.036643921
0.033060315
0.029531507
0.026165268
0.022780951
0.019432437
0.016308953
0.013498504
0.01103571
0.0089339417
0.0071737829
0.0057106338
0.0044962548
0.0034878487
0.0026497325
0.0019526032
0.0013724168
0.00088938462
0.00048716822
0.00015224377
0.045578778
0.045959721
0.047119896
0.048828647
0.04948831
0.048371306
0.046317303
0.044115271
0.041989005
0.039646301
0.036616956
0.033033839
0.029505649
0.026139098
0.022754595
0.019407613
0.016286752
0.013479383
0.011019802
0.0089211066
0.0071636055
0.0057026449
0.0044900434
0.0034830822
0.0026461423
0.0019499769
0.0013705817
0.00088820087
0.00048652239
0.00015204263
0.045560476
0.045939242
0.047092533
0.04879949
0.049465583
0.048352569
0.046297468
0.04409291
0.041964024
0.039619437
0.036589958
0.033007308
0.029479712
0.026112853
0.022728159
0.019382713
0.016264491
0.013460198
0.011003837
0.0089082234
0.0071533813
0.0056946154
0.0044837992
0.0034782878
0.0026425311
0.0019473336
0.0013687344
0.00088700903
0.00048587213
0.00015184008
0.045542188
0.0459188
0.04706524
0.048770369
0.049442864
0.048333893
0.046277648
0.044070574
0.041939047
0.039592567
0.03656293
0.032980733
0.029453739
0.026086562
0.022701688
0.019357772
0.01624219
0.013440974
0.010987848
0.0088953133
0.0071431308
0.0056865625
0.0044775339
0.003473477
0.0026389062
0.0019446805
0.0013668795
0.00088581258
0.00048521904
0.00015163662
0.045523916
0.04589839
0.047038002
0.048741214
0.049420147
0.048315232
0.046257902
0.04404827
0.041914079
0.039565706
0.036535882
0.032954127
0.029427736
0.026060242
0.022675196
0.01933282
0.016219871
0.013421744
0.010971844
0.0088823891
0.0071328699
0.0056784976
0.0044712589
0.0034686568
0.0026352744
0.0019420216
0.0013650207
0.00088461322
0.00048456425
0.00015143269
0.045505654
0.045878006
0.047010819
0.048712088
0.049397423
0.04829662
0.046238164
0.044025975
0.041889119
0.039538852
0.036508831
0.032927505
0.029401703
0.026033899
0.022648685
0.019307859
0.016197554
0.013402517
0.010955841
0.0088694646
0.0071226093
0.0056704336
0.0044649811
0.0034638346
0.0026316402
0.0019393612
0.0013631606
0.00088341296
0.00048390909
0.0001512286
0.045487403
0.045857641
0.04698366
0.048682928
0.049374692
0.048278021
0.046218464
0.044003687
0.041864168
0.039512004
0.036481778
0.032900875
0.02937565
0.026007557
0.02262218
0.019282902
0.016175246
0.013383293
0.010939846
0.0088565471
0.0071123483
0.0056623678
0.0044587034
0.0034590112
0.0026280041
0.0019366992
0.0013612995
0.00088221184
0.00048325355
0.00015102436
0.045469162
0.045837289
0.046956554
0.048653786
0.04935195
0.048259467
0.046198812
0.043981411
0.041839227
0.039485163
0.036454729
0.03287424
0.02934961
0.02598121
0.022595688
0.019257966
0.016152954
0.013364089
0.010923874
0.0088436468
0.0071020994
0.0056543108
0.0044524317
0.0034541924
0.0026243723
0.0019340394
0.0013594398
0.00088101162
0.0004825985
0.00015082026
0.04545093
0.045816955
0.046929487
0.048624615
0.049329197
0.048240929
0.046179168
0.043959177
0.041814298
0.039458332
0.036427681
0.0328476
0.029323561
0.025954863
0.022569199
0.019233047
0.016130684
0.013344915
0.01090792
0.0088307614
0.0070918642
0.0056462625
0.004446166
0.0034493779
0.0026207428
0.0019313817
0.001357581
0.00087981221
0.00048194362
0.0001506162
0.045432704
0.045796641
0.046902476
0.048595448
0.049306433
0.048222434
0.046159596
0.043936966
0.041789386
0.039431512
0.036400636
0.032820965
0.029297506
0.025928526
0.02254273
0.019208149
0.016108444
0.013325763
0.010891987
0.0088178941
0.0070816453
0.0056382268
0.0044399088
0.0034445693
0.0026171184
0.0019287275
0.001355725
0.00087861444
0.00048128957
0.00015041245
0.045414482
0.045776345
0.046875471
0.048566264
0.049283654
0.048203957
0.046140045
0.043914769
0.041764488
0.039404705
0.0363736
0.032794336
0.029271456
0.025902199
0.022516292
0.019183286
0.016086236
0.013306639
0.010876088
0.0088050531
0.0070714428
0.0056302048
0.0044336621
0.0034397691
0.0026134992
0.0019260777
0.001353872
0.0008774185
0.00048063667
0.00015020904
0.045396262
0.045756066
0.04684852
0.048537065
0.049260867
0.048185522
0.046120525
0.043892585
0.041739607
0.039377911
0.036346581
0.03276772
0.029245426
0.025875886
0.022489867
0.019158453
0.016064058
0.013287558
0.010860223
0.0087922416
0.0070612627
0.0056221995
0.0044274296
0.0034349791
0.0026098879
0.001923433
0.0013520226
0.00087622482
0.00047998512
0.00015000602
0.045378042
0.045735801
0.046821599
0.048507873
0.049238063
0.048167108
0.04610107
0.043870435
0.041714743
0.039351133
0.036319574
0.032741105
0.029219395
0.025849581
0.022463464
0.019133647
0.016041918
0.013268509
0.010844384
0.0087794506
0.0070511001
0.0056142071
0.0044212052
0.0034301956
0.0026062813
0.0019207911
0.0013501752
0.00087503234
0.00047933421
0.00014980318
0.045359814
0.045715549
0.046794733
0.04847864
0.04921525
0.048148734
0.046081627
0.043848328
0.041689898
0.03932438
0.036292581
0.032714505
0.029193365
0.025823296
0.0224371
0.019108879
0.016019815
0.013249491
0.010828575
0.0087666863
0.0070409623
0.0056062326
0.0044149956
0.0034254229
0.0026026833
0.0019181562
0.0013483321
0.00087384302
0.0004786848
0.00014960081
0.045341584
0.045695308
0.046767881
0.048449422
0.049192421
0.048130386
0.046062251
0.043826239
0.041665072
0.039297648
0.036265597
0.032687913
0.029167354
0.025797026
0.022410756
0.01908415
0.015997749
0.013230514
0.01081281
0.0087539546
0.0070308463
0.0055982773
0.0044087989
0.00342066
0.0025990926
0.0019155266
0.0013464931
0.00087265613
0.00047803664
0.00014939889
0.045323351
0.045675077
0.046741075
0.048420171
0.049169581
0.048112073
0.046042907
0.043804165
0.041640265
0.039270935
0.036238621
0.032661342
0.029141357
0.025770763
0.022384431
0.019059449
0.015975722
0.01321158
0.010797077
0.0087412524
0.0070207518
0.0055903381
0.0044026167
0.0034159082
0.002595509
0.0019129025
0.0013446579
0.00087147159
0.00047738993
0.00014919739
0.045305115
0.045654855
0.046714296
0.048390927
0.049146728
0.048093791
0.046023591
0.043782116
0.041615476
0.039244237
0.03621167
0.032634776
0.029115362
0.025744523
0.022358149
0.019034784
0.01595373
0.013192676
0.01078137
0.0087285725
0.0070106764
0.0055824136
0.0043964446
0.0034111639
0.002591932
0.0019102824
0.0013428257
0.00087028886
0.00047674431
0.0001489962
0.045286874
0.04563464
0.046687567
0.048361656
0.04912386
0.048075539
0.046004348
0.043760117
0.041590708
0.039217558
0.036184732
0.032608228
0.02908937
0.025718295
0.022331889
0.019010163
0.01593178
0.01317381
0.010765702
0.0087159241
0.0070006304
0.0055745096
0.0043902893
0.0034064329
0.0025883645
0.0019076693
0.0013409982
0.00086910924
0.0004761004
0.00014879553
0.045268627
0.045614429
0.046660869
0.048332383
0.049100983
0.048057324
0.045985118
0.043738144
0.041565961
0.039190896
0.036157815
0.032581692
0.029063403
0.02569208
0.022305648
0.018985572
0.015909867
0.013154988
0.010750074
0.0087033058
0.0069906043
0.0055666233
0.0043841456
0.00340171
0.0025848036
0.0019050611
0.0013391737
0.00086793177
0.00047545743
0.00014859516
0.045250374
0.045594219
0.046634192
0.048303093
0.049078086
0.048039135
0.045965954
0.043716189
0.041541235
0.039164252
0.036130907
0.03255518
0.029037446
0.025665876
0.022279453
0.018961018
0.015887995
0.013136204
0.010734478
0.0086907174
0.0069805997
0.0055587546
0.0043780163
0.0033969984
0.0025812512
0.0019024594
0.001337354
0.00086675735
0.00047481603
0.00014839533
0.045232115
0.045574007
0.046607551
0.048273783
0.049055184
0.048020987
0.045946826
0.043694253
0.041516528
0.039137625
0.036104012
0.03252868
0.029011493
0.025639689
0.02225328
0.018936506
0.015866162
0.013117453
0.010718912
0.0086781547
0.0069706174
0.0055509017
0.0043719001
0.0033922966
0.002577705
0.0018998626
0.0013355379
0.00086558502
0.00047417595
0.00014819588
0.045213849
0.045553797
0.046580949
0.048244477
0.049032261
0.048002864
0.045927729
0.043672369
0.041491844
0.039111017
0.036077136
0.032502192
0.028985547
0.025613523
0.02222713
0.018912029
0.015844368
0.013098744
0.010703385
0.0086656222
0.006960662
0.0055430687
0.0043657981
0.0033876058
0.0025741679
0.0018972713
0.0013337257
0.00086441517
0.00047353732
0.00014799687
0.045195575
0.045533594
0.046554397
0.048215136
0.049009331
0.047984782
0.045908704
0.043650519
0.041467188
0.039084433
0.036050281
0.032475718
0.028959632
0.025587371
0.022201022
0.018887589
0.015822616
0.013080079
0.010687896
0.0086531188
0.0069507272
0.0055352518
0.0043597089
0.0033829244
0.0025706373
0.001894685
0.0013319167
0.00086324744
0.00047289989
0.00014779821
0.045177294
0.045513397
0.046527848
0.0481858
0.048986384
0.047966724
0.045889692
0.043628688
0.041442555
0.039057874
0.036023446
0.03244926
0.028933724
0.025561245
0.022174945
0.018863191
0.015800906
0.013061451
0.010672442
0.008640649
0.0069408165
0.0055274565
0.0043536355
0.0033782554
0.0025671173
0.0018921066
0.0013301131
0.00086208343
0.00047226426
0.00014760012
0.045159005
0.045493207
0.046501341
0.048156438
0.048963424
0.047948709
0.045870753
0.043606876
0.041417944
0.03903134
0.035996628
0.032422818
0.028907821
0.025535136
0.022148888
0.018838829
0.015779234
0.013042859
0.010657019
0.0086282048
0.0069309274
0.0055196752
0.0043475737
0.0033735946
0.0025636022
0.001889532
0.0013283122
0.00086092099
0.00047162938
0.0001474023
0.045140709
0.045473022
0.046474864
0.048127074
0.048940452
0.047930715
0.045851843
0.043585107
0.041393354
0.039004825
0.035969822
0.032396385
0.028881927
0.025509042
0.022122868
0.018814503
0.015757602
0.013024308
0.010641634
0.0086157882
0.0069210621
0.0055119126
0.0043415257
0.0033689443
0.0025600943
0.0018869629
0.0013265153
0.00085976101
0.00047099597
0.00014720492
0.045122404
0.045452843
0.046448434
0.048097691
0.048917461
0.047912766
0.045832974
0.043563381
0.041368788
0.03897833
0.035943031
0.03236997
0.028856065
0.025482971
0.022096885
0.018790218
0.015736012
0.013005801
0.010626287
0.0086034021
0.0069112212
0.0055041677
0.004335492
0.0033643054
0.002556596
0.0018844
0.0013247228
0.00085860387
0.00047036424
0.00014700806
0.04510409
0.045432668
0.046422031
0.048068295
0.048894461
0.047894836
0.045814166
0.043541674
0.041344243
0.038951856
0.035916268
0.032343566
0.028830207
0.02545692
0.022070923
0.018765974
0.015714465
0.012987332
0.010610976
0.0085910509
0.0069014046
0.0054964448
0.0043294745
0.0033596789
0.0025531069
0.0018818438
0.0013229349
0.00085744972
0.00046973422
0.00014681171
0.045085768
0.045412498
0.046395649
0.04803889
0.048871437
0.047876953
0.04579537
0.043519986
0.041319719
0.0389254
0.035889522
0.032317184
0.028804354
0.025430885
0.02204499
0.018741761
0.01569295
0.012968893
0.010595692
0.0085787209
0.0068916042
0.0054887324
0.0043234635
0.0033550565
0.002549621
0.00187929
0.0013211482
0.00085629645
0.00046910444
0.00014661543
0.045067438
0.045392333
0.046369296
0.048009454
0.048848405
0.047859089
0.045776659
0.043498333
0.041295217
0.038898964
0.035862799
0.032290811
0.028778515
0.025404867
0.022019099
0.018717588
0.015671481
0.012950503
0.010580448
0.0085664206
0.0068818296
0.0054810404
0.0043174705
0.0033504477
0.0025461446
0.0018767435
0.0013193669
0.0008551466
0.00046847642
0.00014641972
0.045049098
0.045372171
0.046342984
0.047980018
0.048825348
0.047841266
0.045757964
0.043476731
0.041270737
0.038872549
0.035836092
0.032264455
0.028752701
0.025378872
0.021993231
0.018693459
0.015650053
0.012932152
0.010565242
0.0085541504
0.0068720809
0.0054733671
0.0043114913
0.0033458499
0.0025426762
0.0018742033
0.00131759
0.0008539996
0.00046785005
0.00014622454
0.045030747
0.045352011
0.046316716
0.047950553
0.048802276
0.04782347
0.045739322
0.043455145
0.041246278
0.038846153
0.035809399
0.032238109
0.028726891
0.025352895
0.021967383
0.018669359
0.015628661
0.012913834
0.010550067
0.0085419109
0.0068623523
0.0054657101
0.0043055247
0.0033412617
0.0025392156
0.0018716677
0.0013158166
0.00085285468
0.00046722496
0.00014602975
0.045012385
0.045331845
0.046290457
0.04792108
0.048779185
0.047805704
0.045720724
0.043433577
0.04122184
0.038819776
0.035782723
0.032211784
0.028701086
0.025326929
0.021941582
0.018645296
0.015607304
0.012895548
0.010534918
0.0085296927
0.0068526391
0.0054580656
0.0042995657
0.0033366787
0.0025357585
0.0018691344
0.0013140445
0.00085171059
0.00046660037
0.00014583508
0.044994012
0.045311682
0.046264229
0.04789159
0.048756069
0.047787972
0.045702151
0.043412042
0.041197423
0.038793429
0.035756076
0.032185473
0.028675299
0.025300988
0.021915806
0.018621277
0.015585994
0.012877314
0.010519813
0.0085175072
0.0068429554
0.0054504436
0.0042936253
0.00333211
0.002532313
0.0018666101
0.0013122782
0.00085057053
0.00046597784
0.00014564105
0.044975629
0.045291512
0.046238028
0.047862084
0.048732941
0.047770265
0.045683651
0.043390559
0.041173028
0.038767104
0.035729449
0.032159175
0.028649532
0.025275064
0.021890051
0.018597293
0.015564725
0.012859115
0.010504745
0.0085053494
0.0068332938
0.0054428382
0.004287698
0.0033275511
0.0025288736
0.0018640905
0.0013105156
0.00084943265
0.00046535637
0.00014544736
0.044957238
0.045271344
0.046211873
0.04783257
0.04870978
0.047752594
0.04566516
0.043369094
0.041148655
0.038740803
0.035702843
0.032132891
0.028623769
0.025249156
0.021864334
0.018573342
0.015543486
0.012840948
0.010489705
0.0084932194
0.0068236519
0.005435247
0.0042817812
0.0033230004
0.0025254401
0.0018615755
0.0013087563
0.00084829685
0.00046473601
0.00014525406
0.044938839
0.045251181
0.04618576
0.047803029
0.048686606
0.047734946
0.045646745
0.043347645
0.041124302
0.03871452
0.035676254
0.03210662
0.02859801
0.025223263
0.021838647
0.018549429
0.01552229
0.012822818
0.010474694
0.008481115
0.0068140284
0.0054276714
0.0042758758
0.003318458
0.0025220133
0.0018590642
0.0013069996
0.00084716268
0.00046411671
0.00014506107
0.044920433
0.045231022
0.046159649
0.047773478
0.048663399
0.047717334
0.04562835
0.043326232
0.041099971
0.038688259
0.035649682
0.032080371
0.028572272
0.025197392
0.021812984
0.01852556
0.01550114
0.012804738
0.010459727
0.0084690431
0.0068044336
0.0054201187
0.004269988
0.0033139294
0.002518597
0.0018565606
0.0013052483
0.00084603199
0.00046349942
0.00014486867
0.044902018
0.045210867
0.046133573
0.047743902
0.048640172
0.047699741
0.045610006
0.043304869
0.041075663
0.038662017
0.03562313
0.032054131
0.02854655
0.02517154
0.021787352
0.018501721
0.015480023
0.012786689
0.010444791
0.0084569938
0.0067948556
0.0054125774
0.0042641088
0.0033094063
0.0025151851
0.0018540606
0.0013034988
0.00084490254
0.00046288271
0.00014467645
0.044883594
0.045190717
0.046107533
0.047714315
0.048616919
0.047682189
0.045591706
0.043283523
0.041051376
0.038635797
0.035596608
0.032027911
0.028520833
0.025145698
0.021761756
0.018477918
0.015458943
0.012768673
0.010429887
0.0084449743
0.0067853017
0.0054050542
0.004258244
0.0033048947
0.0025117809
0.0018515665
0.0013017538
0.00084377596
0.0004622674
0.00014448467
0.044865161
0.045170571
0.046081538
0.047684713
0.048593634
0.047664658
0.045573433
0.043262193
0.041027111
0.038609596
0.035570107
0.0320017
0.028495119
0.02511988
0.021736184
0.01845416
0.015437907
0.0127507
0.010415014
0.0084329831
0.0067757675
0.0053975458
0.0042523904
0.0033003914
0.0025083826
0.0018490768
0.0013000119
0.0008426514
0.00046165308
0.00014429323
0.044846712
0.045150428
0.046055577
0.047655089
0.048570329
0.047647158
0.045555225
0.043240905
0.041002876
0.038583416
0.035543629
0.031975511
0.028469428
0.025094081
0.021710637
0.018430436
0.015416914
0.012732771
0.010400181
0.0084210214
0.0067662577
0.0053900589
0.0042465524
0.0032959001
0.0025049936
0.0018465931
0.0012982743
0.00084152945
0.00046104038
0.00014410228
0.044828255
0.045130289
0.046029627
0.047625461
0.048546982
0.047629685
0.045537026
0.043219661
0.040978667
0.038557256
0.035517169
0.031949336
0.028443751
0.025068296
0.021685134
0.018406748
0.015395952
0.012714872
0.01038538
0.0084090817
0.0067567657
0.0053825838
0.004240723
0.0032914151
0.0025016094
0.0018441126
0.001296539
0.00084040891
0.00046042858
0.00014391158
0.044809791
0.045110153
0.046003708
0.047595801
0.048523617
0.047612237
0.045518907
0.043198434
0.040954481
0.038531118
0.035490727
0.031923176
0.028418077
0.025042527
0.021659654
0.0183831
0.015375034
0.01269701
0.010370613
0.008397174
0.0067472998
0.0053751289
0.0042349101
0.0032869422
0.0024982351
0.0018416397
0.0012948085
0.0008392916
0.00045981854
0.00014372144
0.04479132
0.045090021
0.045977831
0.047566141
0.048500211
0.047594819
0.045500796
0.043177224
0.040930317
0.038505006
0.035464308
0.03189703
0.028392408
0.02501678
0.021634197
0.01835949
0.015354158
0.012679193
0.010355876
0.0083852947
0.0067378534
0.0053676881
0.0042291077
0.0032824774
0.0024948655
0.0018391704
0.0012930805
0.00083817595
0.00045920918
0.0001435315
0.044772841
0.045069892
0.045952
0.047536452
0.048476778
0.047577422
0.045482748
0.043156065
0.040906176
0.038478917
0.035437916
0.031870898
0.028366762
0.024991053
0.021608783
0.018335917
0.01533332
0.012661414
0.010341176
0.0083734419
0.0067284279
0.0053602642
0.0042233181
0.0032780221
0.0024915027
0.0018367063
0.0012913561
0.00083706262
0.00045860095
0.00014334192
0.044754353
0.045049758
0.0459262
0.047506746
0.048453311
0.047560056
0.045464726
0.04313494
0.040882058
0.038452854
0.035411548
0.031844787
0.028341128
0.024965338
0.021583397
0.01831238
0.015312517
0.012643668
0.010326511
0.0083616131
0.0067190232
0.0053528568
0.0042175404
0.0032735761
0.0024881471
0.0018342468
0.0012896353
0.00083595141
0.00045799402
0.00014315277
0.044735858
0.045029626
0.045900415
0.047477031
0.048429807
0.047542713
0.045446746
0.043113832
0.040857964
0.038426811
0.0353852
0.031818685
0.028315497
0.024939645
0.021558034
0.018288886
0.01529176
0.012625959
0.01031188
0.0083498163
0.006709643
0.0053454687
0.0042117781
0.0032691422
0.002484801
0.0018317941
0.0012879194
0.00083484336
0.00045738896
0.00014296419
0.044717356
0.045009492
0.045874657
0.047447291
0.048406277
0.047525399
0.04542881
0.04309274
0.040833893
0.038400789
0.035358868
0.031792601
0.028289871
0.024913971
0.021532705
0.018265424
0.015271042
0.012608293
0.010297276
0.0083380438
0.0067002808
0.0053380918
0.0042060235
0.0032647123
0.0024814581
0.0018293435
0.0012862042
0.00083373575
0.00045678416
0.00014277566
0.044698846
0.044989357
0.045848947
0.047417558
0.048382702
0.047508109
0.045410898
0.043071714
0.040809847
0.038374789
0.035332552
0.031766527
0.028264271
0.024888316
0.021507415
0.018242002
0.01525036
0.012590666
0.010282709
0.008326301
0.0066909415
0.0053307334
0.0042002837
0.0032602946
0.0024781233
0.001826899
0.0012844933
0.00083263099
0.00045618076
0.00014258757
0.044680329
0.044969227
0.045823282
0.04738779
0.048359105
0.047490843
0.045393047
0.043050711
0.040785827
0.038348812
0.035306255
0.031740474
0.028238684
0.024862678
0.02148215
0.018218622
0.01522972
0.012573073
0.010268181
0.0083145846
0.0066816241
0.0053233932
0.0041945577
0.0032558871
0.0024747961
0.0018244608
0.0012827868
0.00083152907
0.00045557879
0.00014239992
0.044661804
0.044949101
0.04579765
0.047358028
0.048335458
0.047473605
0.045375202
0.043029725
0.040761832
0.038322856
0.035279983
0.031714433
0.028213102
0.024837064
0.02145691
0.018195279
0.015209123
0.012555517
0.010253684
0.0083028968
0.0066723299
0.0053160713
0.0041888456
0.0032514909
0.0024714774
0.0018220282
0.0012810846
0.00083042981
0.00045497824
0.00014221275
0.044643273
0.044928978
0.045772033
0.047328244
0.048311782
0.047456389
0.04535743
0.043008769
0.040737862
0.038296924
0.03525373
0.031688406
0.028187531
0.024811473
0.021431716
0.018171971
0.015188562
0.012538004
0.010239214
0.0082912323
0.0066630516
0.0053087591
0.0041831398
0.0032470988
0.0024681616
0.0018195971
0.0012793833
0.00082933101
0.00045437809
0.00014202568
0.044624734
0.04490886
0.045746441
0.047298441
0.04828806
0.047439212
0.045339662
0.042987874
0.040713921
0.038271015
0.035227497
0.031662395
0.028161988
0.024785898
0.02140655
0.018148705
0.015168041
0.012520532
0.010224784
0.0082796026
0.0066538016
0.0053014697
0.0041774521
0.0032427195
0.0024648563
0.0018171734
0.001277687
0.00082823547
0.00045377984
0.00014183918
0.044606189
0.044888746
0.045720897
0.047268642
0.048264292
0.047422053
0.045321965
0.042966999
0.040690007
0.038245131
0.03520128
0.031636396
0.028136459
0.024760347
0.021381408
0.018125482
0.015147566
0.012503095
0.010210394
0.0082680001
0.0066445734
0.0052941974
0.0041717784
0.0032383516
0.0024615588
0.0018147559
0.0012759946
0.00082714257
0.00045318299
0.00014165312
0.044587636
0.044868636
0.045695398
0.047238811
0.048240491
0.047404907
0.045304277
0.042946143
0.040666122
0.03821927
0.035175078
0.031610419
0.028110936
0.024734818
0.021356308
0.018102294
0.015127131
0.012485694
0.010196034
0.0082564221
0.0066353651
0.0052869411
0.004166116
0.003233992
0.002458267
0.001812343
0.0012743056
0.00082605172
0.00045258706
0.00014146734
0.044569077
0.044848527
0.045669938
0.047208993
0.048216638
0.047387771
0.045286648
0.042925339
0.040642277
0.038193433
0.035148891
0.031584452
0.028085425
0.024709309
0.021331239
0.018079141
0.015106732
0.012468337
0.010181701
0.0082448685
0.0066261739
0.005279697
0.0041604622
0.0032296387
0.0024549792
0.0018099326
0.0012726183
0.000824962
0.00045199159
0.00014128171
0.044550511
0.04482842
0.045644485
0.04717913
0.048192759
0.047370643
0.045269041
0.042904576
0.040618459
0.038167628
0.035122734
0.031558505
0.028059942
0.024683816
0.021306196
0.018056034
0.015086373
0.012451019
0.010167408
0.0082333521
0.0066170126
0.0052724754
0.0041548257
0.0032252991
0.0024517026
0.0018075299
0.0012709367
0.0008238758
0.0004513982
0.00014109675
0.044531937
0.044808316
0.045619059
0.047149275
0.048168827
0.047353532
0.045251482
0.042883831
0.040594669
0.038141849
0.035096595
0.031532566
0.028034469
0.024658347
0.021281182
0.01803296
0.015066056
0.012433733
0.010153151
0.0082218584
0.0066078696
0.0052652686
0.004149201
0.0032209673
0.0024484322
0.0018051312
0.0012692579
0.00082279144
0.00045080597
0.00014091214
0.044513354
0.044788213
0.045593677
0.047119407
0.048144865
0.047336427
0.045233955
0.04286311
0.040570907
0.038116097
0.035070476
0.031506643
0.028009001
0.024632898
0.021256206
0.01800992
0.015045776
0.012416481
0.010138921
0.0082103868
0.006598744
0.005258075
0.0041435869
0.0032166438
0.0024451675
0.0018027373
0.0012675817
0.00082170877
0.00045021469
0.0001407278
0.044494759
0.044768108
0.045568339
0.047089511
0.048120859
0.047319334
0.045216465
0.04284246
0.040547174
0.038090371
0.035044374
0.031480737
0.027983544
0.024607461
0.021231252
0.017986914
0.015025528
0.01239927
0.010124719
0.0081989404
0.0065896378
0.0052508963
0.0041379827
0.0032123275
0.0024419075
0.0018003469
0.001265908
0.0008206277
0.00044962412
0.00014054367
0.044476158
0.044748001
0.045543041
0.047059628
0.048096809
0.047302246
0.04519902
0.04282183
0.04052347
0.038064669
0.035018287
0.031454842
0.02795811
0.024582043
0.02120632
0.017963949
0.01500532
0.012382096
0.010110553
0.0081875267
0.0065805568
0.0052437382
0.0041323952
0.0032080246
0.0024386571
0.0017979639
0.0012642396
0.00081955009
0.00044903529
0.0001403601
0.04445755
0.044727893
0.045517755
0.047029703
0.048072725
0.047285165
0.045181601
0.042801219
0.040499794
0.038038993
0.034992216
0.031428961
0.027932686
0.024556644
0.021181426
0.017941011
0.014985147
0.012364947
0.010096416
0.0081761327
0.0065714918
0.0052365901
0.0041268143
0.0032037267
0.0024354112
0.0017955831
0.0012625731
0.00081847355
0.00044844701
0.00014017672
0.044438935
0.044707782
0.045492489
0.046999801
0.048048587
0.047268101
0.045164237
0.042780663
0.040476149
0.038013344
0.034966168
0.031403089
0.027907267
0.024531263
0.021156557
0.017918105
0.014965008
0.012347833
0.010082308
0.0081647616
0.0065624452
0.0052294576
0.004121246
0.0031994374
0.0024321721
0.0017932072
0.0012609099
0.00081739915
0.00044786009
0.00013999375
0.044420315
0.044687666
0.045467261
0.046969859
0.048024423
0.04725104
0.045146893
0.042760152
0.040452535
0.037987722
0.034940145
0.03137724
0.027881859
0.024505892
0.021131708
0.017895238
0.014944901
0.012330759
0.010068229
0.0081534146
0.0065534172
0.0052223384
0.0041156884
0.0031951559
0.0024289386
0.0017908353
0.0012592492
0.00081632629
0.00044727413
0.00013981106
0.044401689
0.044667556
0.045442077
0.046939921
0.048000203
0.047233991
0.045129613
0.042739663
0.040428952
0.037962127
0.034914146
0.031351402
0.027856474
0.024480545
0.021106891
0.017872403
0.014924834
0.012313719
0.010054181
0.0081420963
0.0065444127
0.0052152394
0.0041101454
0.0031908862
0.0024257133
0.0017884699
0.0012575927
0.00081525622
0.00044668963
0.00013962882
0.044383058
0.044647448
0.045416934
0.046909985
0.047975949
0.047216945
0.045112345
0.042719205
0.040405401
0.03793656
0.034888165
0.03132558
0.027831099
0.024455215
0.021082104
0.017849598
0.0149048
0.012296703
0.01004016
0.0081307988
0.0065354215
0.0052081492
0.0041046092
0.0031866214
0.002422491
0.0017861071
0.001255938
0.0008141873
0.00044610556
0.00013944671
0.044364419
0.044627342
0.045391817
0.046880008
0.04795165
0.047199908
0.045095149
0.042698818
0.040381886
0.037911022
0.034862203
0.031299771
0.02780573
0.024429898
0.021057338
0.017826824
0.014884798
0.012279722
0.010026172
0.0081195259
0.0065264525
0.0052010761
0.0040990858
0.0031823671
0.0024192773
0.0017837499
0.0012542877
0.00081312117
0.0004455229
0.00013926504
0.044345769
0.044607238
0.04536671
0.046850063
0.047927304
0.047182884
0.045077965
0.042678454
0.040358417
0.037885515
0.034836261
0.031273975
0.027780372
0.024404596
0.021032594
0.017804088
0.014864827
0.01226278
0.01001221
0.0081082746
0.0065175002
0.0051940162
0.0040935727
0.0031781194
0.0024160687
0.0017813961
0.0012526398
0.0008120565
0.00044494113
0.00013908367
0.044327107
0.044587136
0.045341629
0.046820067
0.047902923
0.047165861
0.04506085
0.042658114
0.040334982
0.037860037
0.034810339
0.031248202
0.027755038
0.024379317
0.021007889
0.017781382
0.014844897
0.012245869
0.0099982758
0.0080970496
0.0065085686
0.0051869716
0.0040880723
0.003173881
0.0024128675
0.0017790472
0.0012509952
0.00081099395
0.00044436067
0.0001389027
0.04430844
0.044567037
0.045316593
0.046790093
0.047878488
0.047148849
0.04504375
0.042637847
0.040311582
0.037834591
0.03478445
0.031222441
0.027729716
0.024354056
0.020983205
0.017758705
0.014824998
0.012228983
0.0099843684
0.0080858449
0.0064996511
0.0051799393
0.0040825796
0.003169649
0.0024096698
0.0017767015
0.0012493523
0.00080993249
0.00044378086
0.00013872191
0.044289768
0.044546942
0.045291598
0.046760108
0.047854022
0.047131843
0.045026718
0.042617614
0.040288217
0.037809177
0.034758586
0.031196702
0.0277044
0.024328805
0.020958541
0.017736064
0.014805131
0.012212133