/*--------------------------------*- C++ -*----------------------------------*\
| =========                 |                                                 |
| \\      /  F ield         | OpenFOAM: The Open Source CFD Toolbox           |
|  \\    /   O peration     | Version:  v2012                                 |
|   \\  /    A nd           | Website:  www.openfoam.com                      |
|    \\/     M anipulation  |                                                 |
\*---------------------------------------------------------------------------*/
FoamFile
{
    version     2.0;
    format      ascii;
    class       volScalarField;
    location    "850";
    object      nut;
}
// * * * * * * * * * * * * * * * * * * * * * * * * * * * * * * * * * * * * * //

dimensions      [0 2 -1 0 0 0 0];


internalField   nonuniform List<scalar> 
24000
(
2.2198604e-05
1.1032095e-05
9.3957636e-06
1.1765516e-05
1.3430282e-05
1.4675856e-05
1.5029962e-05
1.5042728e-05
1.6002643e-05
1.1619156e-05
7.7396336e-06
6.4152388e-06
6.2806225e-06
5.2082358e-06
3.4648166e-06
2.2809049e-06
1.4338787e-06
7.8205028e-07
3.3447216e-07
1.2212575e-07
3.9382431e-08
1.15008e-08
3.0634456e-09
7.3539349e-10
1.5408778e-10
2.661635e-11
3.4725903e-12
3.5618283e-13
1.137058e-13
1.2207614e-13
2.2277831e-05
1.0974691e-05
9.3940775e-06
1.1713008e-05
1.3388071e-05
1.464477e-05
1.5007142e-05
1.5023378e-05
1.5971446e-05
1.1600489e-05
7.7274309e-06
6.4032722e-06
6.2632125e-06
5.1877205e-06
3.4510268e-06
2.2712431e-06
1.4269967e-06
7.7784636e-07
3.3242659e-07
1.2131569e-07
3.9108974e-08
1.1419027e-08
3.0414279e-09
7.3008934e-10
1.5297636e-10
2.6424312e-11
3.4470873e-12
3.5298796e-13
1.1216367e-13
1.2035741e-13
2.2360384e-05
1.1114356e-05
9.3941385e-06
1.1696941e-05
1.3350314e-05
1.4594321e-05
1.4951004e-05
1.4953533e-05
1.5886619e-05
1.1579657e-05
7.7136934e-06
6.3906564e-06
6.252383e-06
5.1699114e-06
3.4383331e-06
2.2623514e-06
1.4206559e-06
7.7294174e-07
3.2993552e-07
1.203031e-07
3.8763476e-08
1.1315605e-08
3.0136471e-09
7.234122e-10
1.5157972e-10
2.6184255e-11
3.4166435e-12
3.5079175e-13
1.1227926e-13
1.2057494e-13
2.2444517e-05
1.1201388e-05
9.3949732e-06
1.1670157e-05
1.3314303e-05
1.4554003e-05
1.4910751e-05
1.490908e-05
1.5829074e-05
1.1558341e-05
7.6997413e-06
6.3782025e-06
6.2377052e-06
5.1504204e-06
3.4252992e-06
2.2537117e-06
1.4148198e-06
7.6899284e-07
3.2805061e-07
1.1956924e-07
3.8519274e-08
1.1243413e-08
2.9943626e-09
7.1878762e-10
1.5061304e-10
2.6017865e-11
3.3952085e-12
3.4885516e-13
1.118892e-13
1.2018117e-13
2.2529963e-05
1.1287747e-05
9.3964205e-06
1.1642647e-05
1.3278474e-05
1.4514757e-05
1.487197e-05
1.4866363e-05
1.5772748e-05
1.1536676e-05
7.6854883e-06
6.3657041e-06
6.2241236e-06
5.1316988e-06
3.4126274e-06
2.2451928e-06
1.4089602e-06
7.6486505e-07
3.2604405e-07
1.1877666e-07
3.8253002e-08
1.1164264e-08
2.9731594e-09
7.1369582e-10
1.4954804e-10
2.5834565e-11
3.371673e-12
3.4682174e-13
1.1157369e-13
1.1988011e-13
2.2616642e-05
1.1367803e-05
9.3984776e-06
1.1614311e-05
1.324298e-05
1.447671e-05
1.4834843e-05
1.4825589e-05
1.5719274e-05
1.1514817e-05
7.6710717e-06
6.3532058e-06
6.2104087e-06
5.1129485e-06
3.399908e-06
2.2366287e-06
1.4030769e-06
7.6075045e-07
3.2405011e-07
1.179909e-07
3.798938e-08
1.1085951e-08
2.9521837e-09
7.0865847e-10
1.4849428e-10
2.5653153e-11
3.3483545e-12
3.4478165e-13
1.1123064e-13
1.1954645e-13
2.2704491e-05
1.1445234e-05
9.4011327e-06
1.1585831e-05
1.3207759e-05
1.4439262e-05
1.4798457e-05
1.478565e-05
1.5667014e-05
1.1492848e-05
7.6565526e-06
6.3407125e-06
6.1967306e-06
5.0942691e-06
3.3871968e-06
2.2280492e-06
1.3971768e-06
7.56619e-07
3.2204768e-07
1.172017e-07
3.7724568e-08
1.1007273e-08
2.9311079e-09
7.0359663e-10
1.4743533e-10
2.5470836e-11
3.3249169e-12
3.4272873e-13
1.1088307e-13
1.1920795e-13
2.2793477e-05
1.1521412e-05
9.4043793e-06
1.1557367e-05
1.3172771e-05
1.440221e-05
1.4762538e-05
1.4746268e-05
1.561554e-05
1.1470826e-05
7.641977e-06
6.3282331e-06
6.1830467e-06
5.0756326e-06
3.3744938e-06
2.2194632e-06
1.391272e-06
7.5248717e-07
3.2004649e-07
1.1641339e-07
3.7460123e-08
1.092871e-08
2.9100621e-09
6.9854165e-10
1.4637774e-10
2.528874e-11
3.3015029e-12
3.4067387e-13
1.1053107e-13
1.1886428e-13
2.2883578e-05
1.1597461e-05
9.4082114e-06
1.1529023e-05
1.313799e-05
1.4365436e-05
1.4726937e-05
1.4707284e-05
1.5564709e-05
1.1448791e-05
7.6273758e-06
6.3157726e-06
6.1693785e-06
5.0570503e-06
3.3618107e-06
2.2108824e-06
1.3853713e-06
7.4836114e-07
3.1804971e-07
1.1562729e-07
3.719651e-08
1.0850405e-08
2.8890863e-09
6.935034e-10
1.4532361e-10
2.5107233e-11
3.2781615e-12
3.3862263e-13
1.1017692e-13
1.1851792e-13
2.2974785e-05
1.1674003e-05
9.3977247e-06
1.1500863e-05
1.3103403e-05
1.4328884e-05
1.4691581e-05
1.4668617e-05
1.5514632e-05
1.1426769e-05
7.6127695e-06
6.3033345e-06
6.1557346e-06
5.0385232e-06
3.3491545e-06
2.202314e-06
1.3794803e-06
7.4424569e-07
3.160598e-07
1.1484438e-07
3.6934047e-08
1.0772452e-08
2.8682048e-09
6.8848764e-10
1.4427413e-10
2.4926515e-11
3.2549189e-12
3.3657777e-13
1.0982156e-13
1.1816993e-13
2.3067093e-05
1.1751359e-05
9.3848811e-06
1.1472888e-05
1.3068975e-05
1.429252e-05
1.4656417e-05
1.4630205e-05
1.5465088e-05
1.1404776e-05
7.5981723e-06
6.2909217e-06
6.1421191e-06
5.0200562e-06
3.3365316e-06
2.1937629e-06
1.3736029e-06
7.4014414e-07
3.1407853e-07
1.1406539e-07
3.6673002e-08
1.0694932e-08
2.8474404e-09
6.8349997e-10
1.4323051e-10
2.4746798e-11
3.2318026e-12
3.3454209e-13
1.0946588e-13
1.1782121e-13
2.3160497e-05
1.1829813e-05
9.3725826e-06
1.1445089e-05
1.3034693e-05
1.4256312e-05
1.4621414e-05
1.4592022e-05
1.5415854e-05
1.1382822e-05
7.5835935e-06
6.2785357e-06
6.1285404e-06
5.0016522e-06
3.3239443e-06
2.185232e-06
1.3677413e-06
7.3605819e-07
3.1210674e-07
1.1329067e-07
3.6413487e-08
1.0617879e-08
2.8268019e-09
6.7854251e-10
1.4219319e-10
2.4568162e-11
3.2088234e-12
3.3251684e-13
1.0911038e-13
1.1747233e-13
2.3254999e-05
1.1909564e-05
9.3608384e-06
1.1417455e-05
1.3000558e-05
1.4220253e-05
1.4586558e-05
1.4554044e-05
1.5366858e-05
1.1360917e-05
7.5690395e-06
6.2661777e-06
6.1150021e-06
4.9833107e-06
3.3113953e-06
2.1767244e-06
1.3618978e-06
7.319897e-07
3.1014541e-07
1.1252065e-07
3.6155657e-08
1.0541341e-08
2.8063026e-09
6.736185e-10
1.4116284e-10
2.439072e-11
3.185996e-12
3.3050356e-13
1.0875554e-13
1.1712382e-13
2.3350599e-05
1.1990646e-05
9.3496548e-06
1.1389991e-05
1.2966572e-05
1.4184342e-05
1.4551847e-05
1.4516262e-05
1.5318163e-05
1.1339067e-05
7.5545149e-06
6.2538485e-06
6.1015037e-06
4.9650346e-06
3.2988871e-06
2.1682408e-06
1.356073e-06
7.2793906e-07
3.0819467e-07
1.1175531e-07
3.589949e-08
1.0465309e-08
2.7859395e-09
6.6872706e-10
1.4013927e-10
2.4214438e-11
3.163316e-12
3.2850195e-13
1.0840144e-13
1.1677576e-13
2.3447297e-05
1.2073023e-05
9.3390376e-06
1.1362693e-05
1.2932734e-05
1.4148566e-05
1.451727e-05
1.4478673e-05
1.5269866e-05
1.1317277e-05
7.540023e-06
6.2415489e-06
6.0880491e-06
4.9468245e-06
3.2864206e-06
2.1597831e-06
1.3502683e-06
7.2390736e-07
3.062551e-07
1.1099492e-07
3.5645089e-08
1.0389816e-08
2.7657221e-09
6.6387069e-10
1.3912301e-10
2.403941e-11
3.1407959e-12
3.2651329e-13
1.080485e-13
1.1642861e-13
2.3545095e-05
1.2156703e-05
9.32899e-06
1.1335548e-05
1.289904e-05
1.4112921e-05
1.4482811e-05
1.4441261e-05
1.5221882e-05
1.1295549e-05
7.5255663e-06
6.2292794e-06
6.0746393e-06
4.9286811e-06
3.2739962e-06
2.151352e-06
1.3444843e-06
7.1989507e-07
3.0432689e-07
1.1023955e-07
3.5392471e-08
1.0314864e-08
2.7456508e-09
6.5904935e-10
1.3811406e-10
2.3865632e-11
3.1184348e-12
3.245374e-13
1.076966e-13
1.1608223e-13
2.3643994e-05
1.2241723e-05
9.3195126e-06
1.1308541e-05
1.2865482e-05
1.4077399e-05
1.4448464e-05
1.4404021e-05
1.5174203e-05
1.1273885e-05
7.5111464e-06
6.2170403e-06
6.0612727e-06
4.9106037e-06
3.2616158e-06
2.142948e-06
1.3387212e-06
7.1590237e-07
3.0241015e-07
1.0948925e-07
3.5141658e-08
1.0240463e-08
2.7257281e-09
6.5426377e-10
1.3711257e-10
2.3693137e-11
3.0962374e-12
3.2257494e-13
1.0734605e-13
1.1573698e-13
2.3743998e-05
1.2328056e-05
9.3106092e-06
1.1281676e-05
1.283206e-05
1.4041998e-05
1.441423e-05
1.4366945e-05
1.5126807e-05
1.1252285e-05
7.4967641e-06
6.2048318e-06
6.0479509e-06
4.8925938e-06
3.2492795e-06
2.1345716e-06
1.3329791e-06
7.1192918e-07
3.0050474e-07
1.087439e-07
3.4892596e-08
1.0166594e-08
2.7059486e-09
6.4951246e-10
1.3611822e-10
2.3521866e-11
3.074196e-12
3.2062536e-13
1.0699688e-13
1.1539289e-13
2.3845111e-05
1.2415611e-05
9.3022777e-06
1.1254956e-05
1.2798777e-05
1.4006723e-05
1.4380111e-05
1.4330029e-05
1.5079685e-05
1.1230751e-05
7.4824203e-06
6.1926542e-06
6.0346746e-06
4.8746531e-06
3.2369877e-06
2.126224e-06
1.3272594e-06
7.0797651e-07
2.986112e-07
1.0800376e-07
3.4645378e-08
1.0093285e-08
2.6863204e-09
6.4479749e-10
1.3513145e-10
2.3351891e-11
3.0523201e-12
3.186894e-13
1.0664918e-13
1.1505007e-13
2.394734e-05
1.2504361e-05
9.2945586e-06
1.122837e-05
1.2765627e-05
1.3971562e-05
1.4346095e-05
1.4293274e-05
1.5032846e-05
1.1209283e-05
7.4681159e-06
6.180508e-06
6.0214418e-06
4.8567785e-06
3.2247412e-06
2.1179048e-06
1.3215614e-06
7.0404398e-07
2.9672927e-07
1.0726869e-07
3.4399955e-08
1.0020521e-08
2.6668386e-09
6.401176e-10
1.3415198e-10
2.3183166e-11
3.0306031e-12
3.1676636e-13
1.063027e-13
1.1470822e-13
2.4050695e-05
1.2594374e-05
9.2874899e-06
1.1201904e-05
1.2732606e-05
1.3936513e-05
1.4312174e-05
1.425667e-05
1.4986286e-05
1.1187883e-05
7.4538515e-06
6.168393e-06
6.0082527e-06
4.8389733e-06
3.2125409e-06
2.1096145e-06
1.3158856e-06
7.0013164e-07
2.9485902e-07
1.0653875e-07
3.4156348e-08
9.9483097e-09
2.6475063e-09
6.3547373e-10
1.3318004e-10
2.3015734e-11
3.0090513e-12
3.1485707e-13
1.0595786e-13
1.1436782e-13
2.4155192e-05
1.2675135e-05
9.2810858e-06
1.1175556e-05
1.2699709e-05
1.3901574e-05
1.4278348e-05
1.4220213e-05
1.4939995e-05
1.116655e-05
7.4396271e-06
6.156309e-06
5.9951074e-06
4.8212375e-06
3.200386e-06
2.1013537e-06
1.3102322e-06
6.9623967e-07
2.930004e-07
1.0581384e-07
3.3914514e-08
9.876635e-09
2.6283183e-09
6.3086439e-10
1.3221529e-10
2.2849535e-11
2.9876567e-12
3.1296081e-13
1.056145e-13
1.1402871e-13
2.4260856e-05
1.274829e-05
9.2753554e-06
1.1149341e-05
1.2666941e-05
1.3866745e-05
1.4244624e-05
1.4183905e-05
1.4893967e-05
1.1145284e-05
7.4254427e-06
6.1442563e-06
5.9820048e-06
4.8035689e-06
3.1882775e-06
2.0931228e-06
1.3046018e-06
6.9236855e-07
2.9115369e-07
1.0509411e-07
3.3674506e-08
9.8055147e-09
2.6092796e-09
6.2629084e-10
1.31258e-10
2.2684615e-11
2.9664252e-12
3.1107804e-13
1.0527263e-13
1.1369089e-13
2.4367714e-05
1.2822231e-05
9.2703055e-06
1.1123254e-05
1.2634301e-05
1.3832031e-05
1.4210996e-05
1.4147739e-05
1.4848195e-05
1.1124087e-05
7.4112982e-06
6.1322348e-06
5.9689426e-06
4.7859703e-06
3.1762159e-06
2.0849211e-06
1.2989936e-06
6.8851753e-07
2.8931846e-07
1.0437937e-07
3.3436256e-08
9.7349268e-09
2.5903843e-09
6.2175169e-10
1.3030787e-10
2.252092e-11
2.94535e-12
3.0920815e-13
1.0493212e-13
1.1335422e-13
2.4475753e-05
1.2896964e-05
9.2659293e-06
1.1097277e-05
1.2601781e-05
1.3797414e-05
1.4177451e-05
1.4111711e-05
1.4802711e-05
1.1102957e-05
7.3971933e-06
6.1202441e-06
5.9559187e-06
4.768442e-06
3.1642013e-06
2.0767495e-06
1.2934083e-06
6.846871e-07
2.8749501e-07
1.0366977e-07
3.319982e-08
9.6648906e-09
2.571638e-09
6.1724839e-10
1.2936522e-10
2.235851e-11
2.9244389e-12
3.0735192e-13
1.0459327e-13
1.1301902e-13
2.458497e-05
1.2972484e-05
9.2622276e-06
1.1071395e-05
1.2569379e-05
1.37629e-05
1.4143988e-05
1.4075815e-05
1.4757509e-05
1.1081895e-05
7.3831282e-06
6.1082844e-06
5.9429379e-06
4.7509824e-06
3.1522328e-06
2.068608e-06
1.2878459e-06
6.8087719e-07
2.8568312e-07
1.0296512e-07
3.296512e-08
9.5953778e-09
2.5530321e-09
6.1277867e-10
1.2842957e-10
2.2197296e-11
2.9036797e-12
3.0550815e-13
1.0425573e-13
1.1268494e-13
2.469536e-05
1.3048791e-05
9.2592049e-06
1.1045624e-05
1.2537097e-05
1.372849e-05
1.4110612e-05
1.4040053e-05
1.4712537e-05
1.10609e-05
7.3691026e-06
6.096355e-06
5.9299868e-06
4.7335921e-06
3.1403128e-06
2.0604967e-06
1.2823066e-06
6.7708786e-07
2.838829e-07
1.0226552e-07
3.2732197e-08
9.5264046e-09
2.5345717e-09
6.0834389e-10
1.2750121e-10
2.2037334e-11
2.8830807e-12
3.0367779e-13
1.0391985e-13
1.1235233e-13
2.4806914e-05
1.3125881e-05
9.2568602e-06
1.1019966e-05
1.250494e-05
1.3694185e-05
1.4077323e-05
1.4004425e-05
1.4667791e-05
1.1039971e-05
7.3551162e-06
6.0844564e-06
5.9170795e-06
4.7162726e-06
3.1284394e-06
2.0524151e-06
1.2767899e-06
6.7331874e-07
2.8209412e-07
1.0157088e-07
3.2501018e-08
9.4579591e-09
2.5162534e-09
6.0394319e-10
1.2657995e-10
2.187859e-11
2.8626372e-12
3.0186029e-13
1.0358537e-13
1.1202092e-13
2.4919626e-05
1.3203753e-05
9.2552001e-06
1.0994407e-05
1.2472902e-05
1.3659982e-05
1.4044108e-05
1.3968923e-05
1.4623271e-05
1.1019109e-05
7.3411684e-06
6.0725885e-06
5.9038927e-06
4.6990228e-06
3.1166122e-06
2.0443644e-06
1.2712965e-06
6.6957038e-07
2.8031709e-07
1.0088131e-07
3.2271619e-08
9.3900535e-09
2.4980807e-09
5.9957746e-10
1.2566599e-10
2.1721095e-11
2.842353e-12
3.0005597e-13
1.0325236e-13
1.1169079e-13
2.5033489e-05
1.32824e-05
9.2542208e-06
1.0968935e-05
1.2440978e-05
1.3625871e-05
1.4010962e-05
1.3933546e-05
1.4578989e-05
1.0998313e-05
7.3272591e-06
6.0607507e-06
5.8905271e-06
4.681839e-06
3.1048322e-06
2.0363438e-06
1.2658261e-06
6.658423e-07
2.7855137e-07
1.0019657e-07
3.2043905e-08
9.3226548e-09
2.4800438e-09
5.952442e-10
1.2475877e-10
2.1564754e-11
2.8222157e-12
2.9826378e-13
1.0292074e-13
1.1136186e-13
2.5148498e-05
1.336182e-05
9.2539239e-06
1.0943549e-05
1.2409166e-05
1.3591861e-05
1.3977892e-05
1.3898288e-05
1.4534934e-05
1.0977584e-05
7.3133882e-06
6.0489425e-06
5.8771932e-06
4.6647265e-06
3.093099e-06
2.0283537e-06
1.2603789e-06
6.6213476e-07
2.7679722e-07
9.9516816e-08
3.1817946e-08
9.2557889e-09
2.4621507e-09
5.9094556e-10
1.238588e-10
2.1409657e-11
2.8022373e-12
2.9648491e-13
1.0259081e-13
1.1103446e-13
2.5264646e-05
1.3442007e-05
9.2543032e-06
1.0918265e-05
1.2377472e-05
1.355795e-05
1.3944902e-05
1.3863151e-05
1.4491092e-05
1.0956922e-05
7.2995552e-06
6.0371632e-06
5.8638905e-06
4.6476826e-06
3.0814116e-06
2.0203941e-06
1.2549547e-06
6.5844749e-07
2.7505447e-07
9.8841966e-08
3.1593703e-08
9.189442e-09
2.4443973e-09
5.8668035e-10
1.2296579e-10
2.1255754e-11
2.7824111e-12
2.947185e-13
1.0226211e-13
1.1070808e-13
2.5381927e-05
1.3522956e-05
9.2553486e-06
1.0893077e-05
1.2345895e-05
1.3524138e-05
1.3911982e-05
1.382813e-05
1.4447471e-05
1.0936327e-05
7.2857594e-06
6.0254122e-06
5.850618e-06
4.6307049e-06
3.0697713e-06
2.0124652e-06
1.2495538e-06
6.5478078e-07
2.733232e-07
9.8172035e-08
3.1371184e-08
9.1236164e-09
2.4267842e-09
5.8244887e-10
1.2207982e-10
2.110306e-11
2.7627393e-12
2.929649e-13
1.0193488e-13
1.1038298e-13
2.5500337e-05
1.360466e-05
9.2570458e-06
1.0867966e-05
1.2314429e-05
1.3490417e-05
1.3879122e-05
1.3793216e-05
1.4404067e-05
1.0915798e-05
7.2720002e-06
6.0136887e-06
5.8373756e-06
4.6137955e-06
3.0581775e-06
2.0045663e-06
1.2441759e-06
6.5113403e-07
2.7160298e-07
9.7506805e-08
3.1150301e-08
9.0582831e-09
2.4093032e-09
5.7824898e-10
1.2120041e-10
2.0951487e-11
2.7432107e-12
2.9122334e-13
1.0160918e-13
1.1005926e-13
2.5619871e-05
1.3687113e-05
9.259357e-06
1.0842919e-05
1.2283071e-05
1.3456787e-05
1.384633e-05
1.3758414e-05
1.4360874e-05
1.0895337e-05
7.2582769e-06
6.0019917e-06
5.8241632e-06
4.5969549e-06
3.0466296e-06
1.9966985e-06
1.2388215e-06
6.4750786e-07
2.6989431e-07
9.6846533e-08
3.0931156e-08
8.9934769e-09
2.3919644e-09
5.740833e-10
1.2032815e-10
2.0801142e-11
2.7238388e-12
2.8949482e-13
1.0128505e-13
1.0973694e-13
2.5740524e-05
1.3770307e-05
9.2621721e-06
1.0817953e-05
1.2251821e-05
1.3423253e-05
1.3813608e-05
1.3723718e-05
1.431788e-05
1.0874942e-05
7.2445889e-06
5.9903204e-06
5.8109798e-06
4.5801802e-06
3.0351275e-06
1.9888605e-06
1.2334896e-06
6.4390159e-07
2.6819672e-07
9.619099e-08
3.0713661e-08
8.929168e-09
2.3747592e-09
5.6994963e-10
1.1946257e-10
2.065194e-11
2.7046121e-12
2.8777797e-13
1.0096189e-13
1.0941535e-13
2.5862293e-05
1.3854234e-05
9.2660048e-06
1.0793077e-05
1.2220684e-05
1.3389809e-05
1.3780948e-05
1.368913e-05
1.4275086e-05
1.0854613e-05
7.2309354e-06
5.9786737e-06
5.7978243e-06
4.5634703e-06
3.0236718e-06
1.9810531e-06
1.228181e-06
6.4031558e-07
2.6651034e-07
9.554024e-08
3.0497843e-08
8.8653673e-09
2.3576911e-09
5.658489e-10
1.1860387e-10
2.0503921e-11
2.6855369e-12
2.8607388e-13
1.0064038e-13
1.0909526e-13
2.5985174e-05
1.3938886e-05
9.2705993e-06
1.0768274e-05
1.2189655e-05
1.3356452e-05
1.3748343e-05
1.3654642e-05
1.4232496e-05
1.0834352e-05
7.217316e-06
5.9670508e-06
5.7846963e-06
4.5468286e-06
3.0122614e-06
1.9732759e-06
1.2228955e-06
6.3674949e-07
2.6483497e-07
9.4894148e-08
3.0283643e-08
8.8020528e-09
2.3407534e-09
5.6177942e-10
1.1775168e-10
2.0357019e-11
2.6666043e-12
2.8438177e-13
1.0032039e-13
1.0877654e-13
2.6109165e-05
1.4024256e-05
9.2758821e-06
1.0743529e-05
1.2158731e-05
1.3323177e-05
1.3715793e-05
1.3620252e-05
1.4190101e-05
1.0814158e-05
7.2037298e-06
5.9554503e-06
5.7715955e-06
4.5302524e-06
3.0008961e-06
1.9655291e-06
1.2176331e-06
6.3320356e-07
2.6317085e-07
9.4252872e-08
3.0071128e-08
8.7392485e-09
2.3239533e-09
5.5774302e-10
1.1690639e-10
2.0211301e-11
2.6478233e-12
2.8270217e-13
1.0000174e-13
1.0845896e-13
2.6234261e-05
1.4110334e-05
9.2820084e-06
1.0718837e-05
1.2127908e-05
1.3289988e-05
1.3683303e-05
1.3585961e-05
1.4147889e-05
1.0794032e-05
7.1901758e-06
5.943871e-06
5.7585206e-06
4.5137388e-06
2.9895759e-06
1.9578115e-06
1.2123927e-06
6.2967705e-07
2.6151744e-07
9.3616147e-08
2.9860196e-08
8.6769213e-09
2.3072814e-09
5.5373735e-10
1.1606751e-10
2.006668e-11
2.6291817e-12
2.8103389e-13
9.9684117e-14
1.0814219e-13
2.6360459e-05
1.4197111e-05
9.2890366e-06
1.0694221e-05
1.2097192e-05
1.3256881e-05
1.3650864e-05
1.3551762e-05
1.4105859e-05
1.0773973e-05
7.1766532e-06
5.9323117e-06
5.7454702e-06
4.4972908e-06
2.9783011e-06
1.9501245e-06
1.2071759e-06
6.2617066e-07
2.5987514e-07
9.298415e-08
2.9650919e-08
8.6150955e-09
2.2907449e-09
5.4976432e-10
1.1523546e-10
1.9923235e-11
2.6106906e-12
2.793783e-13
9.9368201e-14
1.0782699e-13
2.6487756e-05
1.4284578e-05
9.296588e-06
1.0669685e-05
1.2066588e-05
1.3223852e-05
1.3618473e-05
1.351766e-05
1.4064023e-05
1.0753983e-05
7.1631614e-06
5.9207711e-06
5.7324442e-06
4.4809075e-06
2.9670704e-06
1.9424676e-06
1.2019818e-06
6.2268387e-07
2.5824361e-07
9.23567e-08
2.9443216e-08
8.5537426e-09
2.2743352e-09
5.458216e-10
1.1440973e-10
1.9780872e-11
2.5923375e-12
2.7773412e-13
9.9053573e-14
1.0751291e-13
2.6616146e-05
1.4372725e-05
9.3047768e-06
1.0645213e-05
1.2036092e-05
1.3190901e-05
1.3586128e-05
1.3483649e-05
1.4022373e-05
1.0734063e-05
7.1496999e-06
5.9092477e-06
5.7194419e-06
4.464587e-06
2.9558846e-06
1.9348402e-06
1.1968102e-06
6.192167e-07
2.5662296e-07
9.1733886e-08
2.9237132e-08
8.4928795e-09
2.2580577e-09
5.419107e-10
1.1359066e-10
1.9639655e-11
2.574131e-12
2.7610209e-13
9.8740271e-14
1.0719997e-13
2.6745625e-05
1.4461542e-05
9.3136345e-06
1.062079e-05
1.2005701e-05
1.3158024e-05
1.3553833e-05
1.3449729e-05
1.3980895e-05
1.0714215e-05
7.1362676e-06
5.8977398e-06
5.7064618e-06
4.4483284e-06
2.9447427e-06
1.9272419e-06
1.1916608e-06
6.1576873e-07
2.5501282e-07
9.1115522e-08
2.9032594e-08
8.4324821e-09
2.2419053e-09
5.3802981e-10
1.1277783e-10
1.949951e-11
2.5560616e-12
2.7448139e-13
9.8428177e-14
1.0688805e-13
2.6876186e-05
1.4551018e-05
9.3231829e-06
1.0596423e-05
1.1975413e-05
1.312522e-05
1.352158e-05
1.3415898e-05
1.3939589e-05
1.0694439e-05
7.1228637e-06
5.8862457e-06
5.6935027e-06
4.4321345e-06
2.9336449e-06
1.9196742e-06
1.1865348e-06
6.1234084e-07
2.5341372e-07
9.050184e-08
2.882969e-08
8.3725796e-09
2.2258866e-09
5.3418118e-10
1.1197176e-10
1.9360525e-11
2.5381407e-12
2.7287318e-13
9.8117693e-14
1.065776e-13
2.7007821e-05
1.4641143e-05
9.3334266e-06
1.0572137e-05
1.1945233e-05
1.3092482e-05
1.3489361e-05
1.3382152e-05
1.3898459e-05
1.0674737e-05
7.1094871e-06
5.8747638e-06
5.6805645e-06
4.4160032e-06
2.9225909e-06
1.9121356e-06
1.1814308e-06
6.089319e-07
2.51825e-07
8.9892524e-08
2.8628296e-08
8.3131303e-09
2.2099894e-09
5.303616e-10
1.1117175e-10
1.9222577e-11
2.5203517e-12
2.7127572e-13
9.7808256e-14
1.06268e-13
2.7140522e-05
1.4731907e-05
9.3443645e-06
1.0547929e-05
1.1915164e-05
1.3059811e-05
1.345718e-05
1.3348492e-05
1.38575e-05
1.0655111e-05
7.0961373e-06
5.8632919e-06
5.6676466e-06
4.3999333e-06
2.9115806e-06
1.9046259e-06
1.176349e-06
6.0554214e-07
2.5024684e-07
8.9287696e-08
2.8428466e-08
8.2541543e-09
2.19422e-09
5.265728e-10
1.1037818e-10
1.9085741e-11
2.5027049e-12
2.6969011e-13
9.7500245e-14
1.0595967e-13
2.7274278e-05
1.4823298e-05
9.3559976e-06
1.052378e-05
1.1885203e-05
1.3027202e-05
1.3425034e-05
1.3314913e-05
1.3816696e-05
1.0635562e-05
7.0828134e-06
5.8518275e-06
5.6547481e-06
4.3839248e-06
2.9006132e-06
1.8971454e-06
1.1712893e-06
6.0217153e-07
2.4867913e-07
8.868727e-08
2.8230163e-08
8.1956381e-09
2.1785742e-09
5.2281369e-10
1.0959081e-10
1.8949969e-11
2.4851943e-12
2.6811579e-13
9.7193479e-14
1.056524e-13
2.7409076e-05
1.4915306e-05
9.3683266e-06
1.0499675e-05
1.1855345e-05
1.2994652e-05
1.3392916e-05
1.3281414e-05
1.3776051e-05
1.0616092e-05
7.0695148e-06
5.8403682e-06
5.6418678e-06
4.3679778e-06
2.8896894e-06
1.8896949e-06
1.1662525e-06
5.9882043e-07
2.471221e-07
8.8091365e-08
2.8033436e-08
8.137599e-09
2.1630573e-09
5.1908565e-10
1.0880995e-10
1.8815317e-11
2.4678273e-12
2.6655349e-13
9.6888131e-14
1.0534639e-13
2.7544902e-05
1.5007919e-05
9.3813583e-06
1.0475633e-05
1.1825592e-05
1.2962155e-05
1.3360818e-05
1.3247994e-05
1.3735569e-05
1.0596704e-05
7.0562414e-06
5.828911e-06
5.6290053e-06
4.3520913e-06
2.8788085e-06
1.8822724e-06
1.161237e-06
5.9548757e-07
2.4557499e-07
8.7499617e-08
2.7838144e-08
8.0799897e-09
2.1476556e-09
5.153852e-10
1.0803483e-10
1.8681649e-11
2.4505859e-12
2.6500154e-13
9.658389e-14
1.0504132e-13
2.7681741e-05
1.5101126e-05
9.3950837e-06
1.0451674e-05
1.1795955e-05
1.2929712e-05
1.3328745e-05
1.3214653e-05
1.369524e-05
1.0577401e-05
7.0429928e-06
5.8174526e-06
5.6161599e-06
4.3362647e-06
2.8679702e-06
1.8748789e-06
1.1562437e-06
5.9217371e-07
2.4403831e-07
8.691228e-08
2.7644385e-08
8.0228446e-09
2.1323793e-09
5.1171496e-10
1.0726604e-10
1.8549071e-11
2.4334839e-12
2.6346132e-13
9.6281165e-14
1.0473763e-13
2.7819573e-05
1.5194917e-05
9.409497e-06
1.0427792e-05
1.1766436e-05
1.2897325e-05
1.3296696e-05
1.3181389e-05
1.3655053e-05
1.0558186e-05
7.0297691e-06
5.8059891e-06
5.6033304e-06
4.3204984e-06
2.8571737e-06
1.8675142e-06
1.1512722e-06
5.8887881e-07
2.425119e-07
8.6329258e-08
2.7452121e-08
7.9661489e-09
2.1172238e-09
5.0807372e-10
1.0650332e-10
1.8417535e-11
2.416515e-12
2.6193195e-13
9.5979504e-14
1.0443481e-13
2.795838e-05
1.528928e-05
9.4245959e-06
1.0403964e-05
1.1737032e-05
1.2864982e-05
1.326466e-05
1.3148201e-05
1.3615014e-05
1.0539062e-05
7.0165707e-06
5.7945162e-06
5.5905162e-06
4.304792e-06
2.8464204e-06
1.8601783e-06
1.1463227e-06
5.856027e-07
2.4099575e-07
8.5750568e-08
2.7261364e-08
7.9099098e-09
2.1021916e-09
5.0446224e-10
1.0574683e-10
1.8287074e-11
2.3996838e-12
2.6041401e-13
9.5679127e-14
1.0413311e-13
2.8098141e-05
1.5384203e-05
9.4403809e-06
1.0380175e-05
1.1707738e-05
1.2832683e-05
1.3232631e-05
1.311509e-05
1.3575124e-05
1.0520034e-05
7.003399e-06
5.7830288e-06
5.5777173e-06
4.2891451e-06
2.8357086e-06
1.8528698e-06
1.1413941e-06
5.8234441e-07
2.3948926e-07
8.5175914e-08
2.7071999e-08
7.8540878e-09
2.0872714e-09
5.0087761e-10
1.0499595e-10
1.8157574e-11
2.3829758e-12
2.5890645e-13
9.5380031e-14
1.0383255e-13
2.8238832e-05
1.5479675e-05
9.4568533e-06
1.0356447e-05
1.1678561e-05
1.2800429e-05
1.3200613e-05
1.3082053e-05
1.3535372e-05
1.0501106e-05
6.9902556e-06
5.771521e-06
5.564934e-06
4.2735575e-06
2.8250379e-06
1.84559e-06
1.1364875e-06
5.7910495e-07
2.3799306e-07
8.4605593e-08
2.6884139e-08
7.7987208e-09
2.0724742e-09
4.9732263e-10
1.0425127e-10
1.8029145e-11
2.3664053e-12
2.5741051e-13
9.508244e-14
1.0353336e-13
2.8380429e-05
1.5575684e-05
9.4740028e-06
1.0332792e-05
1.1649514e-05
1.2768224e-05
1.3168607e-05
1.3049095e-05
1.3495756e-05
1.0482281e-05
6.9771429e-06
5.7599858e-06
5.5521666e-06
4.2580277e-06
2.8144084e-06
1.8383378e-06
1.1316018e-06
5.7588374e-07
2.3650672e-07
8.4039414e-08
2.6697711e-08
7.7437842e-09
2.0577925e-09
4.9379543e-10
1.0351241e-10
1.7901713e-11
2.3499617e-12
2.5592479e-13
9.4785686e-14
1.0323479e-13
2.8522907e-05
1.5672217e-05
9.4918278e-06
1.0309205e-05
1.1620602e-05
1.2736062e-05
1.3136598e-05
1.3016212e-05
1.3456276e-05
1.0463565e-05
6.9640644e-06
5.7484151e-06
5.5394159e-06
4.2425563e-06
2.80382e-06
1.8311132e-06
1.1267374e-06
5.7268055e-07
2.350302e-07
8.3477369e-08
2.651272e-08
7.6892829e-09
2.0432287e-09
4.9029664e-10
1.027795e-10
1.7775308e-11
2.3336499e-12
2.5445006e-13
9.4490266e-14
1.0293741e-13
2.8666239e-05
1.5769263e-05
9.510315e-06
1.0285661e-05
1.1591828e-05
1.2703943e-05
1.3104586e-05
1.29834e-05
1.3416928e-05
1.0444911e-05
6.9510087e-06
5.7368342e-06
5.5266847e-06
4.2271411e-06
2.793271e-06
1.8239155e-06
1.1218935e-06
5.6949493e-07
2.3356317e-07
8.2919279e-08
2.6329092e-08
7.6351905e-09
2.0287745e-09
4.8682416e-10
1.020521e-10
1.7649849e-11
2.317459e-12
2.5298554e-13
9.4196186e-14
1.0264125e-13
2.8810399e-05
1.5866807e-05
9.5294579e-06
1.0262148e-05
1.1563187e-05
1.2671868e-05
1.307258e-05
1.2950658e-05
1.3377706e-05
1.0426277e-05
6.9379644e-06
5.7252705e-06
5.5139741e-06
4.2117814e-06
2.7827617e-06
1.8167456e-06
1.1170708e-06
5.6632763e-07
2.3210611e-07
8.2365381e-08
2.6146919e-08
7.5815377e-09
2.0144392e-09
4.833804e-10
1.0133071e-10
1.7525429e-11
2.3014017e-12
2.5153224e-13
9.3903476e-14
1.0234632e-13
2.8955358e-05
1.5964838e-05
9.5492514e-06
1.0238746e-05
1.1534668e-05
1.2639819e-05
1.3040586e-05
1.2917988e-05
1.3338609e-05
1.0407661e-05
6.9249303e-06
5.7137235e-06
5.5012829e-06
4.196476e-06
2.772292e-06
1.8096019e-06
1.1122683e-06
5.6317775e-07
2.3065845e-07
8.1815421e-08
2.5966105e-08
7.5282936e-09
2.0002139e-09
4.799631e-10
1.0061486e-10
1.7401961e-11
2.2854664e-12
2.5008889e-13
9.3611635e-14
1.0205205e-13
2.9101089e-05
1.6063342e-05
9.5696889e-06
1.0215453e-05
1.1506261e-05
1.2607771e-05
1.3008608e-05
1.2885392e-05
1.329964e-05
1.0389061e-05
6.9119059e-06
5.7021924e-06
5.4886104e-06
4.1812253e-06
2.7618614e-06
1.802485e-06
1.1074864e-06
5.6004547e-07
2.2922034e-07
8.1269478e-08
2.5786687e-08
7.4754716e-09
1.9861027e-09
4.7657331e-10
9.990478e-11
1.7279488e-11
2.2696586e-12
2.4865636e-13
9.3321254e-14
1.0175912e-13
2.9247563e-05
1.6162305e-05
9.5907758e-06
1.0192294e-05
1.1477914e-05
1.2575714e-05
1.2976671e-05
1.2852872e-05
1.3260793e-05
1.0370478e-05
6.8988901e-06
5.6906767e-06
5.4759567e-06
4.1660279e-06
2.7514685e-06
1.7953947e-06
1.1027248e-06
5.5693055e-07
2.277916e-07
8.0727424e-08
2.5608607e-08
7.4230514e-09
1.9720994e-09
4.7320942e-10
9.9200113e-11
1.7157944e-11
2.2539697e-12
2.4723382e-13
9.3032161e-14
1.0146736e-13
2.9394751e-05
1.6261714e-05
9.6125019e-06
1.0169242e-05
1.1449597e-05
1.2543674e-05
1.2944785e-05
1.2820426e-05
1.3222063e-05
1.0351909e-05
6.885882e-06
5.6791757e-06
5.4633211e-06
4.1508832e-06
2.7411145e-06
1.7883306e-06
1.0979834e-06
5.538332e-07
2.2637238e-07
8.0189372e-08
2.5431914e-08
7.37105e-09
1.9582092e-09
4.6987283e-10
9.8501179e-11
1.7037391e-11
2.2384076e-12
2.4582173e-13
9.2744198e-14
1.0117655e-13
2.9542625e-05
1.6361556e-05
9.6348697e-06
1.0146273e-05
1.1421307e-05
1.2511651e-05
1.2912935e-05
1.2788046e-05
1.3183446e-05
1.0333352e-05
6.8728802e-06
5.6676887e-06
5.4507026e-06
4.1357911e-06
2.7307979e-06
1.7812916e-06
1.0932612e-06
5.5075247e-07
2.2496212e-07
7.965506e-08
2.5256513e-08
7.3194369e-09
1.9444236e-09
4.6656141e-10
9.7807511e-11
1.6917744e-11
2.2229617e-12
2.4441919e-13
9.2457169e-14
1.008865e-13
2.9691155e-05
1.6461816e-05
9.6578728e-06
1.0123401e-05
1.1393046e-05
1.2479648e-05
1.288112e-05
1.2755733e-05
1.3144943e-05
1.0314808e-05
6.8598837e-06
5.6562151e-06
5.4381006e-06
4.1207506e-06
2.7205183e-06
1.7742787e-06
1.0885592e-06
5.4768897e-07
2.2356117e-07
7.9124652e-08
2.5082461e-08
7.2682318e-09
1.9307483e-09
4.6327665e-10
9.711944e-11
1.6799063e-11
2.2076405e-12
2.4302739e-13
9.21717e-14
1.005979e-13
2.9840313e-05
1.6562481e-05
9.6815018e-06
1.0100646e-05
1.1364819e-05
1.2447671e-05
1.2849349e-05
1.272349e-05
1.3106552e-05
1.0296275e-05
6.8468916e-06
5.6447544e-06
5.4255151e-06
4.1057611e-06
2.7102753e-06
1.7672911e-06
1.0838765e-06
5.446421e-07
2.2216917e-07
7.8597951e-08
2.4909685e-08
7.2174087e-09
1.9171754e-09
4.6001647e-10
9.6436504e-11
1.6681265e-11
2.1924323e-12
2.4164508e-13
9.1887373e-14
1.0031029e-13
2.999007e-05
1.6663536e-05
9.7057472e-06
1.0078011e-05
1.1336627e-05
1.2415714e-05
1.2817619e-05
1.2691315e-05
1.3068271e-05
1.0277751e-05
6.8339029e-06
5.6333057e-06
5.4129454e-06
4.0908222e-06
2.700069e-06
1.7603281e-06
1.0792129e-06
5.4161183e-07
2.2078616e-07
7.807502e-08
2.4738215e-08
7.1669807e-09
1.9037094e-09
4.5678207e-10
9.5758982e-11
1.6564401e-11
2.1773437e-12
2.402727e-13
9.1604143e-14
1.0002361e-13
3.0140395e-05
1.6764964e-05
9.7305963e-06
1.0055471e-05
1.1308468e-05
1.2383776e-05
1.278592e-05
1.2659204e-05
1.3030101e-05
1.0259236e-05
6.8209168e-06
5.6218684e-06
5.4003904e-06
4.0759331e-06
2.6898979e-06
1.7533892e-06
1.0745679e-06
5.3859764e-07
2.1941177e-07
7.7555683e-08
2.4567984e-08
7.1169246e-09
1.8903435e-09
4.5357177e-10
9.5086514e-11
1.6448408e-11
2.1623669e-12
2.3890952e-13
9.1321907e-14
9.9737744e-14
3.029126e-05
1.6866752e-05
9.756058e-06
1.003301e-05
1.1280331e-05
1.2351848e-05
1.2754251e-05
1.2627154e-05
1.2992038e-05
1.0240729e-05
6.8079323e-06
5.610442e-06
5.3878496e-06
4.0610927e-06
2.6797619e-06
1.7464755e-06
1.0699424e-06
5.356002e-07
2.1804644e-07
7.7040132e-08
2.4399062e-08
7.0672644e-09
1.8770846e-09
4.5038736e-10
9.4419484e-11
1.6333355e-11
2.1475109e-12
2.3755667e-13
9.1041122e-14
9.9453193e-14
3.0442635e-05
1.6968885e-05
9.7821218e-06
1.0010629e-05
1.1252215e-05
1.2319937e-05
1.272262e-05
1.2595168e-05
1.2954078e-05
1.0222229e-05
6.7949483e-06
5.599026e-06
5.3753231e-06
4.0463005e-06
2.669661e-06
1.7395853e-06
1.0653349e-06
5.326185e-07
2.1668956e-07
7.6528085e-08
2.4231343e-08
7.0179641e-09
1.8639225e-09
4.4722621e-10
9.3757319e-11
1.6219141e-11
2.1327628e-12
2.3621282e-13