/*--------------------------------*- C++ -*----------------------------------*\
| =========                 |                                                 |
| \\      /  F ield         | OpenFOAM: The Open Source CFD Toolbox           |
|  \\    /   O peration     | Version:  v2012                                 |
|   \\  /    A nd           | Website:  www.openfoam.com                      |
|    \\/     M anipulation  |                                                 |
\*---------------------------------------------------------------------------*/
FoamFile
{
    version     2.0;
    format      ascii;
    class       volScalarField;
    location    "850";
    object      omega;
}
// * * * * * * * * * * * * * * * * * * * * * * * * * * * * * * * * * * * * * //

dimensions      [0 0 -1 0 0 0 0];


internalField   nonuniform List<scalar> 
24000
(
5507.0844
14735.919
36460.151
65162.661
92998.358
118024.09
136316.94
143969.81
144009.63
159801.86
245667.77
447601.77
680267.58
1006112.5
1434087.1
1910429.8
2444925
3134653.6
4177022.3
5903110.7
8852026.3
13952899
22949729
39405394
71294461
1.3865942e+08
3.0059471e+08
7.7696787e+08
2.7429386e+09
1.7851306e+10
5505.9521
14674.903
36284.391
64975.614
92839.693
117900.56
136244.27
143968.08
144028.75
159752.91
245495.83
447368.68
680208.33
1006446.3
1434612.9
1910971.4
2445609.7
3135777.7
4178988.8
5906494.3
8857749.7
13962557
22966184
39434056
71346426
1.3876009e+08
3.0081168e+08
7.7752545e+08
2.7448974e+09
1.7864006e+10
5505.148
14613.658
36110.348
64799.389
92702.049
117811.61
136210.14
144001.05
144063.81
159719.88
245365.47
447223.99
680221.62
1006806.9
1435046.1
1911141.5
2445566.2
3135989.9
4180269.9
5909850
8864313.5
13973862
22984923
39465582
71402135
1.3886646e+08
3.0103942e+08
7.7810935e+08
2.7469473e+09
1.7877295e+10
5504.2906
14552.64
35937.193
64624.308
92564.529
117720.95
136170.87
144023.77
144090.96
159683.19
245242.18
447083.41
680219.38
1007097.5
1435278
1910974.6
2445067.5
3135556.1
4180512.3
5911522.3
8868363
13981702
22999026
39490689
71448092
1.3895592e+08
3.0123269e+08
7.7860658e+08
2.7486946e+09
1.7888626e+10
5503.4534
14491.853
35764.283
64449.395
92426.728
117630.18
136130.85
144044.69
144116.75
159647.96
245128.87
446966.19
680241.8
1007413.5
1435539.6
1910851.6
2444647.4
3135270.6
4181028
5913657.6
8873119.9
13990539
23014496
39517732
71497038
1.3905061e+08
3.0143667e+08
7.7913075e+08
2.7505361e+09
1.7900566e+10
5502.657
14431.39
35591.653
64274.565
92288.617
117539.14
136090.13
144064.16
144141.16
159613.01
245021.57
446863.71
680282.6
1007753.8
1435827.5
1910753.4
2444245.2
3134990.9
4181531.7
5915761.1
8877830.4
13999330
23029943
39544812
71546139
1.3914569e+08
3.0164159e+08
7.7965745e+08
2.7523867e+09
1.7912565e+10
5501.9154
14371.274
35419.262
64099.728
92150.176
117447.91
136049.03
144082.74
144164.71
159578.32
244918.71
446772.62
680338.3
1008114.6
1436139.3
1910679.6
2443866.1
3134734.5
4182065.2
5917908.8
8882608
14008223
23045549
39572145
71595674
1.3924159e+08
3.0184823e+08
7.8018854e+08
2.7542524e+09
1.7924661e+10
5501.2328
14311.514
35247.09
63924.847
92011.397
117356.45
136007.64
144100.61
144187.55
159543.68
244818.77
446689.24
680404.23
1008489.6
1436466.9
1910621.1
2443500.1
3134490.1
4182611.8
5920073.9
8887412
14017159
23061225
39599600
71645429
1.393379e+08
3.0205577e+08
7.8072193e+08
2.7561262e+09
1.793681e+10
5500.608
14252.107
35075.119
63749.903
91872.275
117264.76
135966.02
144117.86
144209.79
159509
244720.77
446611.05
680476.98
1008873.6
1436804.2
1910571.7
2443142.2
3134253.4
4183167.4
5922251
8892233.1
14026120
23076941
39627123
71695307
1.3943446e+08
3.0226383e+08
7.8125665e+08
2.7580046e+09
1.7948989e+10
5500.0368
14193.043
34903.33
63574.889
91732.803
117172.79
135924.17
144134.56
144231.48
159474.2
244624.04
446536.33
680554.22
1009263.5
1437146.7
1910527
2442788.6
3134021.6
4183729.3
5924436.4
8897065.5
14035096
23092681
39654684
71745251
1.3953115e+08
3.0247217e+08
7.8179207e+08
2.7598856e+09
1.7961186e+10
5499.5127
14134.359
34731.73
63399.691
91592.979
117080.55
135882.11
144150.76
144252.71
159439.24
244528.13
446463.88
680634.27
1009656.7
1437491.8
1910484.3
2442437.1
3133792.4
4184294.9
5926626
8901901.7
14044077
23108425
39682250
71795200
1.3962784e+08
3.0268053e+08
7.8232757e+08
2.7617671e+09
1.7973385e+10
5499.0283
14076.055
34560.313
63224.278
91452.799
116987.99
135839.86
144166.47
144273.52
159404.1
244432.7
446392.89
680716.04
1010051.6
1437837.5
1910441.9
2442086.4
3133565.1
4184863.5
5928818.8
8906740.1
14053058
23124167
39709809
71845135
1.397245e+08
3.028888e+08
7.8286283e+08
2.7636475e+09
1.7985576e+10
5498.5754
14018.12
34389.075
63048.648
91312.254
116895.11
135797.43
144181.71
144293.92
159368.75
244337.57
446322.8
680798.83
1010447.2
1438182.2
1910398
2441734.8
3133338.2
4185433.2
5931012
8911576.6
14062033
23139897
39737346
71895030
1.3982108e+08
3.030969e+08
7.8339766e+08
2.7655262e+09
1.7997757e+10
5498.1452
13960.541
34218.014
62872.803
91171.341
116801.89
135754.83
144196.5
144313.9
159333.17
244242.58
446253.25
680882.06
1010842.6
1438525.3
1910352.2
2441382.3
3133111.8
4186004.5
5933206.6
8916412.6
14071003
23155615
39764862
71944885
1.3991759e+08
3.0330484e+08
7.8393205e+08
2.7674034e+09
1.8009929e+10
5497.729
13903.306
34047.126
62696.742
91030.054
116708.32
135712.07
144210.84
144333.47
159297.37
244147.65
446183.95
680965.34
1011237.3
1438866
1910303.6
2441027.8
3132884.9
4186576.3
5935400.6
8921244.4
14079964
23171315
39792342
71994675
1.4001397e+08
3.0351253e+08
7.8446579e+08
2.7692786e+09
1.8022087e+10
5497.3178
13846.402
33876.411
62520.467
90888.391
116614.38
135669.16
144224.75
144352.65
159261.33
244052.7
446114.74
681048.52
1011631.1
1439203.7
1910251.8
2440671.2
3132657.6
4187148.6
5937594.1
8926072
14088914
23186994
39819786
72044396
1.4011022e+08
3.0371991e+08
7.8499879e+08
2.7711513e+09
1.8034229e+10
5496.9028
13789.817
33705.87
62343.976
90746.346
116520.06
135626.13
144238.23
144371.44
159225.05
243957.67
446045.43
681131.34
1012023.5
1439538.3
1910196.5
2440312.5
3132429.7
4187720.9
5939786
8930894
14097851
23202650
39847186
72094037
1.402063e+08
3.0392695e+08
7.855309e+08
2.7730206e+09
1.8046348e+10
5496.4746
13733.539
33535.506
62167.271
90603.916
116425.34
135582.98
144251.29
144389.86
159188.53
243862.54
445975.93
681213.6
1012414.2
1439869.4
1910137.7
2439951.5
3132201.3
4188294
5941978
8935713
14106780
23218285
39874550
72143612
1.4030226e+08
3.041337e+08
7.8606222e+08
2.774887e+09
1.8058449e+10
5496.0233
13677.555
33365.326
61990.352
90461.095
116330.22
135539.73
144263.94
144407.92
159151.77
243767.28
445906.17
681295.26
1012803.2
1440196.6
1910074.6
2439587.5
3131971.7
4188866.6
5944167.9
8940525.5
14115694
23233896
39901869
72193105
1.4039806e+08
3.0434013e+08
7.8659272e+08
2.7767505e+09
1.8070532e+10
5495.5381
13621.853
33195.522
61813.217
90317.881
116234.69
135496.39
144276.19
144425.6
159114.75
243671.86
445836.07
681376.28
1013190.5
1440520.1
1910007.6
2439221
3131741.5
4189439.5
5946356.8
8945332.7
14124597
23249484
39929146
72242522
1.4049372e+08
3.0454624e+08
7.8712241e+08
2.7786115e+09
1.8082599e+10
5495.0073
13566.416
33026.294
61635.868
90174.27
116138.72
135452.99
144288.04
144442.93
159077.5
243576.29
445765.6
681456.55
1013575.7
1440839.6
1909936.6
2438851.9
3131510.3
4190012
5948543.5
8950133.1
14133484
23265044
39956374
72291845
1.4058919e+08
3.0475196e+08
7.8765115e+08
2.7804692e+09
1.8094643e+10
5494.4175
13511.224
32857.668
61458.302
90030.257
116042.32
135409.55
144299.5
144459.9
159040
243480.57
445694.74
681536.06
1013959.1
1441154.9
1909861.4
2438480
3131278.3
4190584.9
5950729.6
8954929.5
14142361
23280582
39983559
72341091
1.406845e+08
3.0495733e+08
7.8817895e+08
2.7823234e+09
1.8106664e+10
5493.7528
13456.256
32689.676
61280.518
89885.84
115945.46
135366.07
144310.58
144476.52
159002.27
243384.67
445623.5
681614.82
1014340.4
1441466
1909781.6
2438105
3131044.9
4191157.1
5952913.3
8959718.6
14151223
23296092
40010696
72390250
1.4077965e+08
3.0516234e+08
7.8870581e+08
2.7841741e+09
1.8118664e+10
5492.9967
13401.486
32522.352
61102.514
89741.013
115848.15
135322.58
144321.27
144492.79
158964.31
243288.61
445551.83
681692.84
1014719.9
1441773.2
1909698
2437727.7
3130811.2
4191729.8
5955096
8964502.7
14160073
23311579
40037791
72439331
1.4087466e+08
3.0536703e+08
7.8923185e+08
2.7860219e+09
1.8130645e+10
5492.145
13346.91
32355.689
60924.288
89595.777
115750.36
135279.1
144331.59
144508.73
158926.11
243192.39
445479.71
681770.08
1015097.5
1442076.3
1909610.1
2437347.5
3130576.2
4192301.8
5957276.3
8969279.5
14168907
23327038
40064837
72488323
1.4096949e+08
3.0557137e+08
7.8975698e+08
2.7878669e+09
1.8142608e+10
5491.1903
13292.519
32189.69
60745.838
89450.126
115652.1
135235.44
144341.53
144524.34
158887.67
243096
445407.24
681846.56
1015473.2
1442375.1
1909517.9
2436964.5
3130340.5
4192874.3
5959456
8974052.3
14177731
23342476
40091842
72537237
1.4106416e+08
3.0577537e+08
7.9028128e+08
2.789709e+09
1.8154551e+10
5490.1262
13238.307
32024.356
60567.158
89304.059
115553.35
135191.51
144351.11
144539.63
158849
242999.45
445334.27
681922.21
1015847.1
1442669.8
1909421.6
2436578.9
3130103.9
4193446.4
5961633.5
8978818.1
14186540
23357885
40118796
72586061
1.4115866e+08
3.0597897e+08
7.9080456e+08
2.7915474e+09
1.816647e+10
5488.947
13184.268
31859.682
60388.248
89157.574
115454.1
135147.31
144360.32
144554.6
158810.1
242902.73
445260.94
681997.13
1016219.1
1442960.6
1909321.5
2436191.1
3129866.9
4194019.1
5963810
8983578.6
14195337
23373271
40145708
72634805
1.41253e+08
3.0618224e+08
7.9132693e+08
2.7933823e+09
1.8178366e+10
5487.6466
13130.395
31695.667
60209.102
89010.67
115354.35
135102.85
144369.18
144569.26
158770.95
242805.84
445187.32
682071.29
1016589.1
1443247.1
1909216.9
2435800.3
3129628.8
4194591.2
5965984.4
8988332.3
14204119
23388631
40172573
72683465
1.4134718e+08
3.0638517e+08
7.9184844e+08
2.7952142e+09
1.8190245e+10
5486.2188
13076.681
31532.308
60029.719
88863.347
115254.1
135058.14
144377.69
144583.6
158731.56
242708.77
445113.39
682144.68
1016956.8
1443529.6
1909108.3
2435407.2
3129390.5
4195164.3
5968158.5
8993082.5
14212891
23403970
40199400
72732055
1.4144123e+08
3.0658782e+08
7.9236921e+08
2.7970437e+09
1.8202107e+10
5484.6579
13023.121
31369.606
59850.094
88715.603
115153.35
135013.16
144385.86
144597.64
158691.92
242611.51
445039.15
682217.34
1017322.3
1443807.9
1908995.6
2435011.5
3129151.3
4195737
5970330.4
8997825.7
14221649
23419282
40226177
72780552
1.415351e+08
3.0679007e+08
7.9288903e+08
2.7988702e+09
1.8213949e+10
5482.9576
12969.708
31207.559
59670.224
88567.438
115052.08
134967.94
144393.68
144611.37
158652.04
242514.06
444964.62
682289.33
1017685.9
1444082.2
1908878.9
2434613.4
3128911.8
4196310.3
5972501.4
9002563.6
14230393
23434569
40252910
72828970
1.416288e+08
3.0699197e+08
7.9340794e+08
2.8006932e+09
1.8225769e+10
5481.1121
12916.438
31046.164
59490.104
88418.854
114950.31
134922.48
144401.18
144624.79
158611.91
242416.43
444889.85
682360.63
1018047.4
1444352.3
1908758
2434212.7
3128671.4
4196883.3
5974670.7
9007295.2
14239125
23449831
40279599
72877305
1.4172235e+08
3.0719352e+08
7.9392592e+08
2.8025127e+09
1.8237565e+10
5479.1151
12863.304
30885.42
59309.732
88269.851
114848.02
134876.78
144408.35
144637.91
158571.52
242318.59
444814.83
682431.27
1018406.6
1444618.5
1908633.2
2433809.8
3128431
4197457.6
5976840
9012023.9
14247847
23465075
40306252
72925575
1.4181577e+08
3.0739481e+08
7.9444318e+08
2.8043296e+09
1.8249346e+10
5476.9605
12810.3
30725.328
59129.102
88120.43
114745.23
134830.84
144415.2
144650.73
158530.86
242220.55
444739.56
682501.32
1018763.9
1444880.4
1908504.3
2433404.3
3128189.6
4198031.1
5979006.7
9016745.2
14256554
23480291
40332857
72973758
1.4190903e+08
3.0759576e+08
7.9495959e+08
2.8061438e+09
1.8261109e+10
5474.6424
12757.422
30565.887
58948.211
87970.593
114641.93
134784.68
144421.73
144663.24
158489.93
242122.29
444664.06
682570.81
1019119.3
1445138.6
1908371.6
2432996.8
3127948.3
4198605.9
5981173.4
9021462.6
14265251
23495486
40359423
73021868
1.4200214e+08
3.0779638e+08
7.9547521e+08
2.8079555e+09
1.8272856e+10
5472.1545
12704.665
30407.094
58767.053
87820.342
114538.12
134738.29
144427.95
144675.46
158448.72
242023.82
444588.36
682639.68
1019472.5
1445392.7
1908234.9
2432586.8
3127706.2
4199180.5
5983338.2
9026173.4
14273933
23510654
40385942
73069893
1.4209509e+08
3.0799665e+08
7.9598992e+08
2.8097639e+09
1.8284581e+10
5469.4908
12652.022
30248.955
58585.628
87669.678
114433.8
134691.7
144433.86
144687.38
158407.2
241925.12
444512.49
682708.05
1019823.8
1445642.8
1908094.3
2432174.5
3127464
4199756
5985502.8
9030880.9
14282607
23525805
40412426
73117850
1.421879e+08
3.081966e+08
7.9650381e+08
2.8115691e+09
1.8296284e+10
5466.6454
12599.487
30091.472
58403.933
87518.606
114328.99
134644.89
144439.46
144699
158365.38
241826.18
444436.43
682775.97
1020173.2
1445889
1907949.8
2431760
3127221.2
4200331.2
5987665.1
9035581.5
14291266
23540929
40438864
73165727
1.4228056e+08
3.0839625e+08
7.9701685e+08
2.8133711e+09
1.8307968e+10
5463.6125
12547.055
29934.649
58221.963
87367.126
114223.67
134597.89
144444.77
144710.33
158323.22
241726.99
444360.22
682843.42
1020520.7
1446131.5
1907801.9
2431343.9
3126978.9
4200908.1
5989828.2
9040279.4
14299916
23556035
40465268
73213539
1.423731e+08
3.0859563e+08
7.9752922e+08
2.815171e+09
1.8319639e+10
5460.3865
12494.72
29778.488
58039.717
87215.241
114117.87
134550.69
144449.77
144721.36
158280.72
241627.54
444283.9
682910.39
1020866.1
1446369.9
1907649.9
2430925.1
3126735.8
4201484.7
5991989.2
9044970.4
14308552
23571114
40491624
73261266
1.4246546e+08
3.0879466e+08
7.9804073e+08
2.8169683e+09
1.8331292e+10
5456.9621
12442.477
29622.995
57857.191
87062.953
114011.56
134503.3
144454.49
144732.09
158237.85
241527.82
444207.49
682977.02
1021209.8
1446604.3
1907494
2430504.3
3126492.7
4202062.4
5994150.1
9049658.3
14317180
23586176
40517948
73308931
1.425577e+08
3.089934e+08
7.9855154e+08
2.8187631e+09
1.8342928e+10
5453.3342
12390.321
29468.165
57674.382
86910.267
113904.77
134455.72
144458.91
144742.53
158194.59
241427.8
444131.01
683043.33
1021551.7
1446835
1907334.5
2430081.6
3126249.4
4202640.3
5996309.3
9054340.1
14325793
23601212
40544226
73356513
1.4264979e+08
3.0919179e+08
7.9906142e+08
2.8205542e+09
1.8354541e+10
5449.4984
12338.248
29314.001
57491.285
86757.188
113797.5
134407.96
144463.04
144752.67
158150.92
241327.5
444054.53
683109.34
1021891.8
1447062.1
1907171.6
2429657.2
3126006.6
4203219.9
5998469.4
9059019.4
14334399
23616231
40570471
73404032
1.4274175e+08
3.0938992e+08
7.9957057e+08
2.8223425e+09
1.8366136e+10
5445.4504
12286.253
29160.504
57307.898
86603.715
113689.73
134360.03
144466.89
144762.52
158106.8
241226.88
443978.12
683175.12
1022230.2
1447284.9
1907004.5
2429230.2
3125762.9
4203798.9
6000627.1
9063691.7
14342990
23631224
40596672
73451473
1.4283357e+08
3.0958775e+08
8.0007894e+08
2.8241283e+09
1.8377715e+10
5441.1867
12234.332
29007.672
57124.219
86449.857
113581.49
134311.93
144470.46
144772.08
158062.2
241125.93
443901.83
683240.73
1022567.2
1447504.2
1906833.9
2428801.6
3125519.8
4204379.6
6002785.4
9068361.6
14351574
23646202
40622842
73498856
1.4292527e+08
3.0978533e+08
8.0058671e+08
2.8259123e+09
1.8389282e+10
5436.7044
12182.484
28855.502
56940.245
86295.616
113472.77
134263.67
144473.75
144781.36
158017.07
241024.62
443825.71
683306.17
1022902.6
1447719.9
1906660
2428371.2
3125276.6
4204960.8
6004942.3
9073025.8
14360144
23661154
40648969
73546160
1.4301681e+08
3.0998258e+08
8.0109367e+08
2.8276936e+09
1.8400831e+10
5432.0009
12130.706
28703.992
56755.976
86140.998
113363.58
134215.24
144476.76
144790.35
157971.38
240922.94
443749.91
683371.48
1023236.1
1447931.5
1906482.3
2427939.1
3125033.8
4205543.4
6007099.6
9077687.1
14368706
23676088
40675060
73593397
1.4310822e+08
3.1017952e+08
8.0159983e+08
2.8294719e+09
1.841236e+10
5427.0745
12078.996
28553.141
56571.411
85986.009
113253.91
134166.66
144479.5
144799.07
157925.06
240820.84
443674.59
683436.73
1023567.7
1448139
1906300.6
2427504.6
3124790.5
4206125.9
6009255.1
9082341.8
14377254
23690998
40701109
73640558
1.4319949e+08
3.1037615e+08
8.0210515e+08
2.8312468e+09
1.8423868e+10
5421.9239
12027.351
28402.946
56386.547
85830.653
113143.77
134117.91
144481.98
144807.52
157878.08
240718.29
443599.9
683502.02
1023897.6
1448343.1
1906115.8
2427068.9
3124548.2
4206710.7
6011412.3
9086995.9
14385798
23705897
40727134
73687672
1.4329066e+08
3.1057259e+08
8.0260993e+08
2.8330198e+09
1.8435364e+10
5416.5482
11975.773
28253.399
56201.383
85674.938
113033.16
134069.01
144484.18
144815.72
157830.35
240615.22
443526.07
683567.41
1024225.6
1448543.3
1905927.6
2426631.4
3124305.6
4207295.6
6013567.4
9091643.6
14394327
23720770
40753115
73734708
1.4338169e+08
3.1076873e+08
8.0311397e+08
2.8347906e+09
1.8446846e+10
5410.9475
11924.26
28104.494
56015.92
85518.868
112922.08
134019.94
144486.13
144823.66
157781.81
240511.56
443453.4
683633.02
1024551.8
1448739.5
1905735.6
2426192.2
3124063.6
4207881.9
6015722.8
9096288.2
14402848
23735624
40779061
73781681
1.4347258e+08
3.1096457e+08
8.0361732e+08
2.8365593e+09
1.8458313e+10
5405.1222
11872.815
27956.224
55830.159
85362.457
112810.53
133970.72
144487.81
144831.38
157732.38
240407.2
443382.28
683698.83
1024876.1
1448932
1905540
2425751.1
3123821.5
4208468.6
6017877
9100927
14411356
23750455
40804966
73828578
1.4356334e+08
3.111601e+08
8.0411989e+08
2.8383251e+09
1.8469762e+10
5399.0731
11821.436
27808.581
55644.1
85205.709
112698.51
133921.34
144489.24
144838.88
157681.99
240302.02
443313.21
683764.95
1025198.6
1449120.9
1905341.4
2425308.8
3123580.5
4209057.8
6020033.1
9105565.2
14419859
23765273
40830845
73875424
1.4365399e+08
3.113554e+08
8.0462177e+08
2.840088e+09
1.8481192e+10
5392.8017
11770.126
27661.559
55457.742
85048.635
112586.02
133871.78
144490.41
144846.2
157630.54
240195.83
443246.89
683831.46
1025519.2
1449305.8
1905139.1
2424864.7
3123339.1
4209646.9
6022187
9110197.1
14428349
23780069
40856684
73922197
1.437445e+08
3.115504e+08
8.0512287e+08
2.841848e+09
1.8492603e+10
5386.3097
11718.886
27515.147
55271.085
84891.246
112473.06
133822.06
144491.33
144853.35
157577.96
240088.39
443184.21
683898.27
1025838.1
1449487
1904933.5
2424419.3
3123098.7
4210237.8
6024341.4
9114826.2
14436830
23794847
40882491
73968912
1.438349e+08
3.1174519e+08
8.0562342e+08
2.8436063e+09
1.8504004e+10
5379.5993
11667.717
27369.334
55084.129
84733.554
112359.62
133772.16
144492.02
144860.38
157524.13
239979.37
443126.35
683965.15
1026154.9
1449664.6
1904724.6
2423972.3
3122858.6
4210829.5
6026495.4
9119450.8
14445301
23809603
40908259
74015558
1.4392517e+08
3.1193967e+08
8.0612325e+08
2.8453625e+09
1.8515391e+10
5372.6727
11616.621
27224.112
54896.876
84575.576
112245.72
133722.08
144492.46
144867.32
157469.73
239869.57
443070.93
684031.73
1026469.7
1449838.5
1904512.6
2423524
3122619.3
4211423.3
6028650.7
9124073.9
14453764
23824346
40934001
74062152
1.4401532e+08
3.1213392e+08
8.0662251e+08
2.8471168e+09
1.8526766e+10
5365.5325
11565.6
27079.473
54709.324
84417.327
112131.35
133671.8
144492.66
144874.2
157415.41
239759.83
443015.19
684097.72
1026782.4
1450008.3
1904296.9
2423074
3122380
4212017.4
6030804.1
9128690.9
14462216
23839065
40959700
74108668
1.4410534e+08
3.1232785e+08
8.0712091e+08
2.8488677e+09
1.8538118e+10
5358.1812
11514.655
26935.408
54521.473
84258.83
112016.5
133621.33
144492.63
144881.03
157361.16
239650.18
442959.07
684163.04
1027093.1
1450174.7
1904078.2
2422623.1
3122142.1
4212613.8
6032958.7
9133306.3
14470661
23853770
40985372
74155133
1.4419525e+08
3.1252154e+08
8.0761865e+08
2.8506159e+09
1.8549453e+10
5350.6216
11463.787
26791.908
54333.323
84100.105
111901.19
133570.65
144492.37
144887.82
157306.99
239540.6
442902.58
684227.67
1027401.4
1450337.2
1903856.1
2422170.5
3121904.3
4213211
6035113
9137917.2
14479095
23868454
41011008
74201532
1.4428504e+08
3.1271499e+08
8.0811574e+08
2.8523618e+09
1.8560775e+10
5342.8565
11413
26648.962
54144.872
83941.116
111785.47
133519.76
144491.88
144894.56
157252.91
239431.09
442845.74
684291.72
1027707.7
1450495.7
1903630.5
2421716.3
3121667.2
4213810
6037268.3
9142526.6
14487522
23883124
41036615
74247881
1.4437472e+08
3.1290822e+08
8.0861229e+08
2.8541062e+09
1.8572087e+10
5334.8886
11362.295
26506.564
53956.127
83781.798
111669.47
133468.67
144491.18
144901.28
157198.91
239321.67
442788.53
684355.16
1028011.9
1450650.5
1903401.5
2421260.8
3121430.3
4214409.6
6039422.1
9147130.2
14495937
23897772
41062185
74294159
1.4446426e+08
3.1310115e+08
8.0910814e+08
2.8558484e+09
1.8583386e+10
5326.7208
11311.674
26364.709
53767.088
83622.149
111553.19
133417.38
144490.27
144907.96
157144.99
239212.33
442730.99
684418
1028314
1450801.8
1903169.6
2420804.4
3121194.9
4215011.9
6041577.7
9151732.9
14504347
23912406
41087727
74340385
1.4455371e+08
3.1329384e+08
8.0960338e+08
2.8575883e+09
1.859467e+10
5318.3559
11261.139
26223.392
53577.76
83462.172
111436.61
133365.9
144489.15
144914.63
157091.17
239103.1
442673.14
684480.29
1028614
1450949.2
1902934.1
2420345.8
3120959.3
4215614.4
6043732.2
9156330.8
14512746
23927021
41113233
74386544
1.4464302e+08
3.1348625e+08
8.1009779e+08
2.8593246e+09
1.8605933e+10
5309.7968
11210.691
26082.608
53388.145
83301.862
111319.73
133314.23
144487.84
144921.29
157037.44
238993.98
442615.02
684542.14
1028912.1
1451092.8
1902695.3
2419886.1
3120724.4
4216218.7
6045888
9160927.5
14521139
23941623
41138716
74432658
1.4473225e+08
3.1367846e+08
8.1059163e+08
2.8610587e+09
1.8617183e+10
5301.0464
11160.334
25942.351
53198.248
83141.223
111202.57
133262.38
144486.34
144927.94
156983.81
238884.97
442556.61
684603.54
1029208.3
1451233.1
1902453.4
2419425.1
3120490.1
4216824.1
6048043.1
9165519.7
14529521
23956204
41164162
74478709
1.4482135e+08
3.1387043e+08
8.1108486e+08
2.8627907e+09
1.8628423e+10
5292.1078
11110.068
25802.616
53008.071
82980.25
111085.11
133210.34
144484.66
144934.59
156930.29
238776.1
442497.98
684664.52
1029502.7
1451370.1
1902208.7
2418963
3120256.9
4217431.9
6050199.6
9170110.5
14537898
23970772
41189583
74524709
1.4491034e+08
3.1406214e+08
8.1157747e+08
2.8645209e+09
1.8639654e+10
5282.9837
11059.897
25663.402
52817.618
82818.947
110967.37
133158.13
144482.81
144941.25
156876.87
238667.37
442439.15
684725.17
1029795.3
1451503.2
1901960.4
2418498.9
3120023.3
4218039.3
6052354.2
9174695.7
14546263
23985319
41214964
74570639
1.449992e+08
3.1425356e+08
8.1206935e+08
2.8662485e+09
1.8650871e+10
5273.6771
11009.82
25524.708
52626.891
82657.31
110849.32
133105.74
144480.79
144947.94
156823.56
238558.78
442380.14
684785.54
1030086.2
1451633.2
1901709.4
2418034
3119790.8
4218648.9
6054510.6
9179280.5
14554624
23999856
41240326
74616525
1.4508798e+08
3.1444477e+08
8.1256059e+08
2.8679731e+09
1.8662074e+10
5264.1909
10959.842
25386.533
52435.89
82495.335
110730.98
133053.18
144478.62
144954.64
156770.37
238450.34
442320.92
684845.61
1030375.4
1451760.1
1901455.6
2417568.1
3119559
4219260
6056666.9
9183861.6
14562975
24014373
41265652
74662348
1.4517663e+08
3.1463569e+08
8.1305096e+08
2.8696938e+09
1.8673258e+10
5254.5283
10909.965
25248.871
52244.619
82333.023
110612.34
133000.44
144476.29
144961.39
156717.3
238342.06
442261.53
684905.42
1030663.1
1451883.7
1901199
2417101.1
3119328.3
4219873.1
6058824.5
9188441.3
14571320
24028877
41290952
74708121
1.4526517e+08
3.148264e+08
8.1354069e+08
2.8714119e+09
1.8684432e+10
5244.6924
10860.208
25111.723
52053.08
82170.368
110493.39
132947.54
144473.83
144968.18
156664.35
238233.94
442201.98
684964.97
1030949.1
1452003.8
1900939.1
2416632.3
3119097.3
4220486.1
6060979.9
9193015
14579653
24043360
41316215
74753827
1.4535358e+08
3.150168e+08
8.1402962e+08
2.8731271e+09
1.8695597e+10
5234.6863
10810.57
24975.089
51861.275
82007.374
110374.14
132894.46
144471.23
144975.03
156611.52
238125.99
442142.27
685024.34
1031233.5
1452121.1
1900676.9
2416163.1
3118867.8
4221101.6
6063137.8
9197589.2
14587983
24057833
41341457
74799490
1.4544189e+08
3.1520696e+08
8.1451791e+08
2.87484e+09
1.8706756e+10
5224.5131
10761.053
24838.973
51669.208
81844.033
110254.58
132841.21
144468.51
144981.94
156558.82
238018.21
442082.4
685083.52
1031516.5
1452235.4
1900412
2415692.9
3118638.9
4221718.5
6065295.6
9202159.8
14596303
24072288
41366664
74845084
1.4553007e+08
3.1539681e+08
8.1500534e+08
2.876549e+09
1.8717903e+10
5214.1762
10711.659
24703.377
51476.877
81680.344
110134.7
132787.8
144465.67
144988.93
156506.25
237910.62
442022.41
685142.57
1031798
1452346.4
1900144.3
2415221.7
3118411.2
4222337.5
6067454.6
9206729
14604618
24086730
41391845
74890625
1.4561814e+08
3.1558637e+08
8.1549179e+08
2.8782532e+09
1.8729033e+10
5203.6793
10662.387
24568.302
51284.286
81516.302
110014.51
132734.21
144462.72
144996
156453.82
237803.22
441962.28
685201.44
1032077.9
1452454.3
1899873.7
2414749.1
3118183.6
4222956.7
6069612
9211292.7
14612921
24101149
41416988
74936096
1.4570607e+08
3.157756e+08
8.1597717e+08
2.8799524e+09
1.8740147e+10
5193.0255
10613.239
24433.75
51091.436
81351.902
109893.98
132680.45
144459.68
145003.17
156401.53
237696
441902.02
685260.2
1032356.5
1452559.6
1899601
2414276.4
3117957.8
4223578.7
6071772
9215857.4
14621221
24115561
41442111
74981529
1.4579389e+08
3.159646e+08
8.1646182e+08
2.881648e+09
1.8751257e+10
5182.2181
10564.218
24299.723
50898.329
81187.145
109773.12
132626.51
144456.55
145010.44
156349.39
237589
441841.64
685318.87
1032633.7
1452661.8
1899325.6
2413802.4
3117732.2
4224201.6
6073931.4
9220417.5
14629511
24129952
41467196
75026885
1.4588156e+08
3.1615321e+08
8.1694536e+08
2.8833391e+09
1.876236e+10
5171.2608
10515.324
24166.227
50704.97
81022.021
109651.92
132572.4
144453.33
145017.83
156297.38
237482.21
441781.18
685377.51
1032909.5
1452760.9
1899047.6
2413327.6
3117508
4224826.8
6076092.2
9224976.7
14637796
24144331
41492253
75072182
1.459691e+08
3.1634148e+08
8.1742786e+08
2.8850254e+09
1.8773457e+10
5160.157
10466.56
24033.268
50511.356
80856.531
109530.37
132518.11
144450.04
145025.34
156245.54
237375.64
441720.63
685436.09
1033184
1452857.3
1898767.1
2412851.9
3117284.4
4225452.9
6078252.4
9229531.6
14646070
24158689
41517275
75117409
1.460565e+08
3.1652938e+08
8.1790915e+08
2.8867056e+09
1.8784543e+10
5148.9106
10417.927
23900.848
50317.492
80690.664
109408.46
132463.63
144446.69
145032.98
156193.84
237269.31
441660.03
685494.72
1033457.2
1452951.1
1898484.5
2412376
3117062.6
4226081.8
6080415.2
9234087.6
14654343
24173039
41542276
75162586
1.4614377e+08
3.1671693e+08
8.1838917e+08
2.8883789e+09
1.8795615e+10
5137.5253
10369.428
23768.972
50123.376
80524.416
109286.17
132408.96
144443.27
145040.78
156142.31
237163.23
441599.38
685553.43
1033729.3
1453041.9
1898199.3
2411898.9
3116840.7
4226710.9
6082576.5
9238638.2
14662603
24187366
41567234
75207685
1.4623087e+08
3.1690407e+08
8.1886775e+08
2.8900449e+09
1.8806674e+10
5126.005
10321.065
23637.642
49929.014
80357.783
109163.51
132354.09
144439.81
145048.74
156090.95
237057.4
441538.7
685612.22
1034000.2
1453130.1
1897911.8
2411421.2
3116620.5
4227342.8
6084739.7
9243188
14670858
24201681
41592165
75252724
1.4631782e+08
3.1709082e+08
8.1934506e+08
2.8917045e+09
1.8817732e+10
5114.3536
10272.842
23506.865
49734.408
80190.759
109040.46
132299.02
144436.31
145056.86
156039.76
236951.83
441477.97
685671.08
1034269.8
1453215.6
1897622
2410942.8
3116401.3
4227976
6086902.9
9247734.1
14679103
24215976
41617055
75297679
1.4640458e+08
3.1727707e+08
8.1982081e+08
2.8933569e+09
1.8828784e+10
5102.5751
10224.759
23376.65
49539.558
80023.339
108917
132243.74
144432.77
145065.18
155988.74
236846.55
441417.26
685730.15
1034538.5
1453298.6
1897330.1
2410464.3
3116183.7
4228612
6089068.6
9252281.5
14687347
24230261
41641923
75342577
1.4649122e+08
3.1746293e+08
8.2029516e+08
2.8950019e+09
1.8839836e+10
5090.6736
10176.821
23247.001
49344.468
79855.514
108793.11
132188.23
144429.21
145073.69
155937.9
236741.56
441356.55
685789.43
1034806.1
1453378.8
1897035.8
2409984.7
3115966.3
4229248.2
6091232.8
9256823.7
14695578
24244525
41666749
75387391
1.4657766e+08
3.1764827e+08
8.2076771e+08
2.8966372e+09
1.8850875e+10
5078.6533
10129.029
23117.925
49149.136
79687.278
108668.8
132132.48
144425.64
145082.4
155887.24
236636.87
441295.84
685848.9
1035072.7
1453456.5
1896739.4
2409504.7
3115750.7
4229887.3
6093399.1
9261364.9
14703803
24258773
41691542
75432133
1.4666393e+08
3.1783311e+08
8.2123836e+08
2.8982619e+09
1.88619e+10
5066.5185
10081.387
22989.425
48953.569
79518.625
108544.03
132076.49
144422.05
145091.33
155836.76
236532.45
441235.12
685908.59
1035338.2
1453531.6
1896440.6
2409024.1
3115536.1
4230528.1
6095565.7
9265902.8
14712020
24273002
41716295
75476793
1.4674999e+08
3.1801743e+08
8.2170715e+08
2.8998767e+09
1.8872919e+10
5054.2733
10033.898
22861.509
48757.768
79349.546
108418.8
132020.24
144418.46
145100.49
155786.47
236428.38
441174.45
685968.64
1035602.9
1453604.2
1896139.7
2408543.1
3115323.1
4231171.4
6097734.7
9270441.8
14720234
24287221
41741021
75521386
1.4683588e+08
3.1820124e+08
8.2217412e+08
2.901482e+09
1.888394e+10
5041.9222
9986.5653
22734.184
48561.735
79180.039
108293.09
131963.72
144414.88
145109.9
155736.38
236324.66
441113.82
686029.03
1035866.7
1453674.4
1895836.7
2408061.3
3115110.3
4231815.1
6099902.5
9274975.8
14728436
24301416
41765700
75565878
1.4692154e+08
3.1838441e+08
8.2263894e+08
2.9030764e+09
1.8894958e+10
5029.4694
9939.3913
22607.458
48365.477
79010.095
108166.87
131906.91
144411.3
145119.55
155686.48
236221.28
441053.2
686089.76
1036129.6
1453742.3
1895531.8
2407579.2
3114899.5
4232461.8
6102072.7
9279510
14736634
24315599
41790351
75610299
1.4700703e+08
3.1856704e+08
8.2310179e+08
2.9046599e+09
1.8905976e+10
5016.9193
9892.38
22481.342
48168.993
78839.708
108040.14
131849.79
144407.74
145129.48
155636.78
236118.21
440992.63
686150.9
1036391.7
1453807.6
1895224.4
2407096.4
3114689.7
4233110.1
6104243
9284040.5
14744822
24329761
41814958
75654628
1.4709229e+08
3.1874904e+08
8.2356226e+08
2.9062301e+09
1.8916984e+10
5004.2766
9845.5351
22355.84
47972.29
78668.871
107912.87
131792.34
144404.21
145139.68