/*--------------------------------*- C++ -*----------------------------------*\
| =========                 |                                                 |
| \\      /  F ield         | OpenFOAM: The Open Source CFD Toolbox           |
|  \\    /   O peration     | Version:  v2012                                 |
|   \\  /    A nd           | Website:  www.openfoam.com                      |
|    \\/     M anipulation  |                                                 |
\*---------------------------------------------------------------------------*/
FoamFile
{
    version     2.0;
    format      ascii;
    class       surfaceScalarField;
    location    "850";
    object      phi;
}
// * * * * * * * * * * * * * * * * * * * * * * * * * * * * * * * * * * * * * //

dimensions      [1 0 -1 0 0 0 0];
oriented        oriented;


internalField   nonuniform List<scalar> 
47170
(
-1.0613906e-08
-4.3758572e-05
-1.6692269e-08
-3.5860036e-05
-1.3346717e-08
-2.8030832e-05
-4.9373126e-09
-2.0223105e-05
1.5981578e-09
-1.3718201e-05
4.9353316e-09
-9.0599691e-06
5.9310718e-09
-6.0145297e-06
5.6335289e-09
-4.0646048e-06
4.8153286e-09
-2.8289544e-06
3.8479651e-09
-1.9898672e-06
2.936234e-09
-1.3715469e-06
2.2375633e-09
-9.3207455e-07
1.7200463e-09
-6.4165269e-07
1.3083259e-09
-4.4632375e-07
9.7956406e-10
-3.0826586e-07
7.2525862e-10
-2.1024243e-07
5.3090955e-10
-1.4215814e-07
3.8312123e-10
-9.5415431e-08
2.7240737e-10
-6.3593457e-08
1.9034376e-10
-4.2150051e-08
1.3025208e-10
-2.7808238e-08
8.6737541e-11
-1.82389e-08
5.5880412e-11
-1.185808e-08
3.4486125e-11
-7.608982e-09
2.0127627e-11
-4.7882398e-09
1.085008e-11
-2.9259845e-09
5.1620937e-12
-1.706922e-09
1.9552386e-12
-9.1875211e-10
4.1933243e-13
-4.1823343e-10
-1.0866954e-10
-1.1728721e-08
-4.3746844e-05
-1.8575782e-08
-3.5853189e-05
-1.478628e-08
-2.8034621e-05
-4.8741554e-09
-2.0233018e-05
3.0147979e-09
-1.372609e-05
6.7849975e-09
-9.0637392e-06
7.7666481e-09
-6.0155112e-06
7.2474846e-09
-4.0640856e-06
5.965748e-09
-2.8276725e-06
4.5772655e-09
-1.9884788e-06
3.4777258e-09
-1.3704472e-06
2.6561687e-09
-9.3125308e-07
2.032427e-09
-6.4102887e-07
1.5281298e-09
-4.4581955e-07
1.1194805e-09
-3.0785719e-07
8.056908e-10
-2.0992875e-07
5.7186052e-10
-1.4192432e-07
3.9995455e-10
-9.5243632e-08
2.7556658e-10
-6.34691e-08
1.8682475e-10
-4.2061388e-08
1.2428225e-10
-2.7745725e-08
8.067895e-11
-1.8195351e-08
5.0789518e-11
-1.1828215e-08
3.0691876e-11
-7.5889192e-09
1.7555681e-11
-4.7751193e-09
9.2605992e-12
-2.9177091e-09
4.3035724e-12
-1.7019697e-09
1.5801322e-12
-9.1603414e-10
3.2521592e-13
-4.169824e-10
-1.0834432e-10
-1.2093015e-08
-4.3734751e-05
-1.9090177e-08
-3.5846192e-05
-1.5086092e-08
-2.8038625e-05
-4.7854106e-09
-2.0243318e-05
3.4957342e-09
-1.3734371e-05
7.3517324e-09
-9.0675952e-06
8.2582213e-09
-6.0164176e-06
7.6052593e-09
-4.0634327e-06
6.1866091e-09
-2.8262538e-06
4.6847514e-09
-1.986977e-06
3.4923605e-09
-1.3692548e-06
2.5914211e-09
-9.3035222e-07
1.9078354e-09
-6.4034525e-07
1.3631827e-09
-4.4527499e-07
9.3224105e-10
-3.0742624e-07
6.1392648e-10
-2.0961053e-07
3.9080056e-10
-1.417012e-07
2.4035601e-10
-9.5093268e-08
1.433394e-10
-6.3372095e-08
8.3385783e-11
-4.2001494e-08
4.7550531e-11
-2.7709901e-08
2.6557114e-11
-1.8174395e-08
1.4506875e-11
-1.1816173e-08
7.6817481e-12
-7.5821171e-09
3.9030588e-12
-4.7713506e-09
1.8590378e-12
-2.915675e-09
7.9053568e-13
-1.7009154e-09
2.6980224e-13
-9.1552529e-10
5.0534439e-14
-4.1677156e-10
-1.0829379e-10
-1.2346975e-08
-4.3722404e-05
-1.9440886e-08
-3.5839098e-05
-1.5295578e-08
-2.804277e-05
-4.7296228e-09
-2.0253884e-05
3.8129164e-09
-1.3742914e-05
7.7290506e-09
-9.0715114e-06
8.5947364e-09
-6.0172833e-06
7.8703628e-09
-4.0627084e-06
6.3937406e-09
-2.8247771e-06
4.8465948e-09
-1.9854299e-06
3.6073789e-09
-1.3680155e-06
2.6722205e-09
-9.2941714e-07
1.9680607e-09
-6.3964106e-07
1.4117403e-09
-4.4471875e-07
9.7655859e-10
-3.0699103e-07
6.5827114e-10
-2.0929232e-07
4.355054e-10
-1.4147843e-07
2.8352467e-10
-9.494135e-08
1.8232935e-10
-6.32709e-08
1.1614825e-10
-4.1935355e-08
7.3236823e-11
-2.7666992e-08
4.5454444e-11
-1.8146638e-08
2.7580326e-11
-1.1798302e-08
1.6173008e-11
-7.5707226e-09
9.0304757e-12
-4.7642086e-09
4.6693409e-12
-2.911321e-09
2.1395007e-12
-1.6983789e-09
7.7902712e-13
-9.1416107e-10
1.6110233e-13
-4.1615097e-10
-1.0813268e-10
-1.2479526e-08
-4.3709924e-05
-1.9608161e-08
-3.5831969e-05
-1.5397293e-08
-2.8046981e-05
-4.7062908e-09
-2.0264575e-05
3.9850606e-09
-1.3751605e-05
7.9338608e-09
-9.0754602e-06
8.7786784e-09
-6.0181281e-06
8.0174174e-09
-4.0619472e-06
6.5108671e-09
-2.8232705e-06
4.9392532e-09
-1.9838584e-06
3.6743137e-09
-1.3667505e-06
2.7182259e-09
-9.2846112e-07
1.9994017e-09
-6.389222e-07
1.4331216e-09
-4.4415253e-07
9.9095933e-10
-3.0654885e-07
6.6737646e-10
-2.089688e-07
4.4049382e-10
-1.4125154e-07
2.8547472e-10
-9.4786386e-08
1.8230029e-10
-6.3167727e-08
1.1510693e-10
-4.1868206e-08
7.1872457e-11
-2.7623764e-08
4.4177431e-11
-1.8118974e-08
2.6572504e-11
-1.1780706e-08
1.5468404e-11
-7.5596406e-09
8.5898574e-12
-4.7573432e-09
4.4349386e-12
-2.9071795e-09
2.0272466e-12
-1.6959885e-09
7.3642509e-13
-9.1288559e-10
1.4891694e-13
-4.1557435e-10
-1.0798377e-10
-1.2548547e-08
-4.3697376e-05
-1.9693943e-08
-3.5824824e-05
-1.5465841e-08
-2.8051209e-05
-4.7100426e-09
-2.0275331e-05
4.0787664e-09
-1.3760394e-05
8.0529167e-09
-9.0794344e-06
8.8900211e-09
-6.0189651e-06
8.1098104e-09
-4.061167e-06
6.5880487e-09
-2.8217488e-06
5.0040223e-09
-1.9822744e-06
3.7243932e-09
-1.3654709e-06
2.7557714e-09
-9.2749255e-07
2.0276321e-09
-6.3819404e-07
1.4547393e-09
-4.435797e-07
1.0074821e-09
-3.0610157e-07
6.7996698e-10
-2.0864134e-07
4.5000215e-10
-1.4102157e-07
2.9254699e-10
-9.4628977e-08
1.874915e-10
-6.306267e-08
1.1883238e-10
-4.1799581e-08
7.4463116e-11
-2.7579399e-08
4.5916003e-11
-1.8090451e-08
2.768438e-11
-1.1762481e-08
1.6141789e-11
-7.548114e-09
8.9684265e-12
-4.7501748e-09
4.6203701e-12
-2.9028409e-09
2.1099863e-12
-1.693477e-09
7.6621922e-13
-9.115422e-10
1.5742135e-13
-4.1496583e-10
-1.0782635e-10
-1.2579598e-08
-4.3684796e-05
-1.9735774e-08
-3.5817668e-05
-1.5520475e-08
-2.8055425e-05
-4.7344714e-09
-2.0286117e-05
4.1227773e-09
-1.3769251e-05
8.1195199e-09
-9.0834312e-06
8.9558339e-09
-6.0198014e-06
8.1659668e-09
-4.0603772e-06
6.6361679e-09
-2.8202189e-06
5.0452206e-09
-1.9806835e-06
3.7566203e-09
-1.3641822e-06
2.779862e-09
-9.2651584e-07
2.0455837e-09
-6.3745973e-07
1.4681464e-09
-4.4300231e-07
1.0175192e-09
-3.0565093e-07
6.8728973e-10
-2.0831116e-07
4.5519915e-10
-1.4078947e-07
2.9616697e-10
-9.4469987e-08
1.8994887e-10
-6.2956451e-08
1.2046199e-10
-4.1730126e-08
7.5527521e-11
-2.7534467e-08
4.6598729e-11
-1.8061543e-08
2.8113807e-11
-1.1743999e-08
1.6405656e-11
-7.5364191e-09
9.1246043e-12
-4.7428989e-09
4.7141494e-12
-2.8984361e-09
2.1550177e-12
-1.6909266e-09
7.8319652e-13
-9.1017774e-10
1.5990544e-13
-4.1434776e-10
-1.0766644e-10
-1.2589996e-08
-4.3672206e-05
-1.975755e-08
-3.58105e-05
-1.557319e-08
-2.8059609e-05
-4.7749121e-09
-2.0296915e-05
4.1349249e-09
-1.3778161e-05
8.1533229e-09
-9.0874496e-06
8.9938483e-09
-6.0206419e-06
8.1994153e-09
-4.0595828e-06
6.6655043e-09
-2.818685e-06
5.0708746e-09
-1.9790889e-06
3.7769281e-09
-1.3628883e-06
2.7950216e-09
-9.2553398e-07
2.056926e-09
-6.3672161e-07
1.4765893e-09
-4.4242201e-07
1.0238085e-09
-3.0519813e-07
6.9191293e-10
-2.079793e-07
4.585089e-10
-1.4055605e-07
2.9850835e-10
-9.4310023e-08
1.9155519e-10
-6.2849494e-08
1.2154547e-10
-4.1660142e-08
7.6234502e-11
-2.7489156e-08
4.7045653e-11
-1.8032371e-08
2.8380462e-11
-1.1725336e-08
1.6555537e-11
-7.5246024e-09
9.1997679e-12
-4.7355432e-09
4.7399309e-12
-2.8939808e-09
2.1641238e-12
-1.6883462e-09
7.8575194e-13
-9.0879673e-10
1.6193465e-13
-4.1372207e-10
-1.0750451e-10
-1.2589548e-08
-4.3659617e-05
-1.9770985e-08
-3.5803319e-05
-1.5629764e-08
-2.806375e-05
-4.8277979e-09
-2.0307717e-05
4.1256265e-09
-1.3787114e-05
8.1660534e-09
-9.09149e-06
9.0132128e-09
-6.0214891e-06
8.2178021e-09
-4.0587874e-06
6.68223e-09
-2.8171494e-06
5.0860392e-09
-1.9774927e-06
3.7891471e-09
-1.3615913e-06
2.8041713e-09
-9.2454904e-07
2.0636049e-09
-6.3598102e-07
1.4815105e-09
-4.4183996e-07
1.0273844e-09
-3.0474399e-07
6.945443e-10
-2.0764651e-07
4.6045072e-10
-1.4032195e-07
2.9991556e-10
-9.4149527e-08
1.925789e-10
-6.2742159e-08
1.2228424e-10
-4.1589881e-08
7.6756187e-11
-2.7443634e-08
4.7409422e-11
-1.8003048e-08
2.863425e-11
-1.1706569e-08
1.6729086e-11
-7.5127156e-09
9.3158553e-12
-4.7281418e-09
4.8196909e-12
-2.8894964e-09
2.2067022e-12
-1.6857482e-09
8.0273182e-13
-9.0740618e-10
1.630901e-13
-4.1309195e-10
-1.0734142e-10
-1.2584029e-08
-4.3647033e-05
-1.9783053e-08
-3.579612e-05
-1.5694042e-08
-2.8067839e-05
-4.8904238e-09
-2.0318521e-05
4.101154e-09
-1.3796106e-05
8.164389e-09
-9.0955533e-06
9.0201586e-09
-6.0223448e-06
8.2261082e-09
-4.0579933e-06
6.6904511e-09
-2.8156137e-06
5.0939765e-09
-1.9758963e-06
3.7956153e-09
-1.360293e-06
2.8089155e-09
-9.2356238e-07
2.066796e-09
-6.3523887e-07
1.4837539e-09
-4.4125696e-07
1.0290968e-09
-3.0428931e-07
6.9581308e-10
-2.0731326e-07
4.6137727e-10
-1.4008751e-07
3.0057675e-10
-9.398876e-08
1.9305127e-10
-6.2634632e-08
1.2260862e-10
-4.1519463e-08
7.6963916e-11
-2.7397993e-08
4.7532631e-11
-1.7973636e-08
2.8695008e-11
-1.1687738e-08
1.6750678e-11
-7.5007847e-09
9.3152737e-12
-4.7207113e-09
4.8042771e-12
-2.8849935e-09
2.1951572e-12
-1.683139e-09
7.9756465e-13
-9.0600951e-10
1.6385903e-13
-4.124589e-10
-1.0717756e-10
-1.2577013e-08
-4.3634456e-05
-1.9797313e-08
-3.5788899e-05
-1.5767093e-08
-2.8071869e-05
-4.9603705e-09
-2.0329327e-05
4.0660138e-09
-1.3805132e-05
8.1527039e-09
-9.09964e-06
9.0188767e-09
-6.023211e-06
8.2274691e-09
-4.057202e-06
6.6928668e-09
-2.8140791e-06
5.0969819e-09
-1.9743004e-06
3.7981532e-09
-1.3589941e-06
2.8106393e-09
-9.225749e-07
2.0678802e-09
-6.3449609e-07
1.4844657e-09
-4.4067358e-07
1.0296564e-09
-3.0383449e-07
6.9628334e-10
-2.0697992e-07
4.6173988e-10
-1.3985296e-07
3.0088613e-10
-9.3827937e-08
1.932911e-10
-6.2527035e-08
1.2278541e-10
-4.1448983e-08
7.7096343e-11
-2.7352306e-08
4.7628785e-11
-1.7944185e-08
2.8764693e-11
-1.1668876e-08
1.6800737e-11
-7.4888318e-09
9.3504109e-12
-4.7132656e-09
4.8329577e-12
-2.8804811e-09
2.2101553e-12
-1.680524e-09
8.0355542e-13
-9.0460953e-10
1.642622e-13
-4.118243e-10
-1.070133e-10
-1.2570538e-08
-4.3621885e-05
-1.981428e-08
-3.5781656e-05
-1.5845832e-08
-2.8075838e-05
-5.0368067e-09
-2.0340136e-05
4.0224717e-09
-1.3814192e-05
8.1340207e-09
-9.1037515e-06
9.011503e-09
-6.0240885e-06
8.2237941e-09
-4.0564143e-06
6.6911654e-09
-2.8125464e-06
5.0966887e-09
-1.972706e-06
3.7981288e-09
-1.3576955e-06
2.810455e-09
-9.2158726e-07
2.0676061e-09
-6.3375322e-07
1.4840574e-09
-4.4009006e-07
1.0292313e-09
-3.0337964e-07
6.9598245e-10
-2.066467e-07
4.6156115e-10
-1.3961853e-07
3.0078977e-10
-9.3667193e-08
1.9323866e-10
-6.2419479e-08
1.2275969e-10
-4.1378522e-08
7.7077169e-11
-2.7306622e-08
4.7612127e-11
-1.7914732e-08
2.8744168e-11
-1.1650009e-08
1.6779913e-11
-7.4768737e-09
9.329505e-12
-4.7058153e-09
4.8101555e-12
-2.8759653e-09
2.1969562e-12
-1.6779068e-09
7.9795891e-13
-9.032082e-10
1.6443284e-13
-4.1118912e-10
-1.0684886e-10
-1.2565487e-08
-4.360932e-05
-1.9834216e-08
-3.5774387e-05
-1.592995e-08
-2.8079742e-05
-5.1185155e-09
-2.0350948e-05
3.9725504e-09
-1.3823283e-05
8.1097279e-09
-9.1078887e-06
9.0000114e-09
-6.0249787e-06
8.2167438e-09
-4.055631e-06
6.6865617e-09
-2.8110162e-06
5.0940759e-09
-1.9711135e-06
3.7963253e-09
-1.3563977e-06
2.808924e-09
-9.2059988e-07
2.0660752e-09
-6.3301035e-07
1.4827812e-09
-4.395068e-07
1.0283581e-09
-3.0292521e-07
6.9540591e-10
-2.0631378e-07
4.6123059e-10
-1.3938434e-07
3.0061333e-10
-9.3506606e-08
1.9318578e-10
-6.2312051e-08
1.2277374e-10
-4.1308137e-08
7.7119581e-11
-2.7260971e-08
4.7662758e-11
-1.7885295e-08
2.8799373e-11
-1.1631151e-08
1.6830103e-11
-7.4649195e-09
9.3726996e-12
-4.6983666e-09
4.8479064e-12
-2.8714499e-09
2.2191003e-12
-1.6752898e-09
8.0713103e-13
-9.0180685e-10
1.6443799e-13
-4.1055396e-10
-1.0668442e-10
-1.2562015e-08
-4.3596758e-05
-1.9856877e-08
-3.5767092e-05
-1.6018426e-08
-2.808358e-05
-5.2050238e-09
-2.0361761e-05
3.9172526e-09
-1.3832405e-05
8.0812534e-09
-9.1120527e-06
8.9850179e-09
-6.0258825e-06
8.2071432e-09
-4.0548532e-06
6.6797948e-09
-2.8094889e-06
5.0896637e-09
-1.9695234e-06
3.7931104e-09
-1.3551012e-06
2.8063044e-09
-9.196131e-07
2.063721e-09
-6.3226775e-07
1.480876e-09
-4.3892398e-07
1.0269694e-09
-3.0247129e-07
6.9444866e-10
-2.0598129e-07
4.6055875e-10
-1.3915044e-07
3.001763e-10
-9.334625e-08
1.9290726e-10
-6.2204779e-08
1.2259625e-10
-4.1237847e-08
7.6999036e-11
-2.7215376e-08
4.7578047e-11
-1.785589e-08
2.8733226e-11
-1.1612311e-08
1.6779071e-11
-7.4529756e-09
9.3332145e-12
-4.6909242e-09
4.8149276e-12
-2.8669377e-09
2.2001434e-12
-1.6726744e-09
7.9941524e-13
-9.0040641e-10
1.6437027e-13
-4.0991913e-10
-1.0652005e-10
-1.2560043e-08
-4.3584198e-05
-1.9882525e-08
-3.575977e-05
-1.6110913e-08
-2.8087352e-05
-5.2952313e-09
-2.0372577e-05
3.8580674e-09
-1.3841558e-05
8.0498359e-09
-9.1162445e-06
8.9675224e-09
-6.0268002e-06
8.1956577e-09
-4.0540813e-06
6.6715258e-09
-2.8079647e-06
5.0839771e-09
-1.9679359e-06
3.7889337e-09
-1.3538061e-06
2.8030032e-09
-9.186272e-07
2.0610952e-09
-6.3152583e-07
1.4787316e-09
-4.3834164e-07
1.0252678e-09
-3.0201781e-07
6.9323719e-10
-2.0564929e-07
4.5974118e-10
-1.3891694e-07
2.9966412e-10
-9.3186198e-08
1.9258519e-10
-6.2097699e-08
1.2239932e-10
-4.1167681e-08
7.6887652e-11
-2.7169866e-08
4.7518464e-11
-1.7826534e-08
2.8705802e-11
-1.15935e-08
1.6770353e-11
-7.4410492e-09
9.3346085e-12
-4.6834921e-09
4.8244523e-12
-2.8624319e-09
2.2061893e-12
-1.6700624e-09
8.0213665e-13
-8.9900777e-10
1.6417568e-13
-4.0928501e-10
-1.0635588e-10
-1.2559462e-08
-4.3571638e-05
-1.9911098e-08
-3.5752418e-05
-1.6206019e-08
-2.8091057e-05
-5.3885075e-09
-2.0383394e-05
3.7953701e-09
-1.3850742e-05
8.0157119e-09
-9.1204648e-06
8.9485838e-09
-6.027733e-06
8.1827119e-09
-4.0533155e-06
6.6621179e-09
-2.8064441e-06
5.0773243e-09
-1.9663511e-06
3.7839879e-09
-1.3525128e-06
2.7990719e-09
-9.176423e-07
2.0578784e-09
-6.3078462e-07
1.4761298e-09
-4.3775991e-07
1.0233657e-09
-3.0156504e-07
6.9188317e-10
-2.0531783e-07
4.5883056e-10
-1.3868388e-07
2.9905592e-10
-9.3026445e-08
1.9219202e-10
-6.1990833e-08
1.2214959e-10
-4.1097654e-08
7.6724179e-11
-2.7124441e-08
4.7412565e-11
-1.7797232e-08
2.8631313e-11
-1.1574721e-08
1.6719042e-11
-7.4291416e-09
9.2975927e-12
-4.6760712e-09
4.795858e-12
-2.8579327e-09
2.1906824e-12
-1.6674542e-09
7.9587026e-13
-8.9761106e-10
1.639561e-13
-4.0865174e-10
-1.0619192e-10
-1.2560212e-08
-4.3559078e-05
-1.9942103e-08
-3.5745036e-05
-1.6303497e-08
-2.8094696e-05
-5.4842876e-09
-2.0394214e-05
3.7300591e-09
-1.3859956e-05
7.979914e-09
-9.1247147e-06
8.9280983e-09
-6.0286812e-06
8.1686296e-09
-4.052556e-06
6.6518897e-09
-2.8049274e-06
5.0700349e-09
-1.9647693e-06
3.7785352e-09
-1.3512212e-06
2.7947878e-09
-9.1665858e-07
2.0542401e-09
-6.3004406e-07
1.473242e-09
-4.3717894e-07
1.021308e-09
-3.0111309e-07
6.9048407e-10
-2.0498703e-07
4.5789968e-10
-1.384513e-07
2.9846686e-10
-9.2867041e-08
1.9185919e-10
-6.1884227e-08
1.2197344e-10
-4.1027795e-08
7.6641892e-11
-2.7079114e-08
4.7380987e-11
-1.7767992e-08
2.8635487e-11
-1.1555981e-08
1.6736913e-11
-7.4172585e-09
9.3218674e-12
-4.6686647e-09
4.8218991e-12
-2.8534422e-09
2.2074524e-12
-1.6648512e-09
8.0298632e-13
-8.9621702e-10
1.6362106e-13
-4.0801978e-10
-1.060283e-10
-1.2562072e-08
-4.3546516e-05
-1.9974522e-08
-3.5737624e-05
-1.6403354e-08
-2.8098267e-05
-5.5824338e-09
-2.0405035e-05
3.6623496e-09
-1.3869201e-05
7.9423267e-09
-9.1289947e-06
8.9065061e-09
-6.0296454e-06
8.1538977e-09
-4.0518034e-06
6.6411027e-09
-2.8034145e-06
5.0622358e-09
-1.9631904e-06
3.77266e-09
-1.3499317e-06
2.7901777e-09
-9.1567611e-07
2.0504737e-09
-6.2930434e-07
1.4702798e-09
-4.3659877e-07
1.0189868e-09
-3.0066179e-07
6.8880746e-10
-2.0465688e-07
4.567214e-10
-1.3821921e-07
2.9768451e-10
-9.2708029e-08
1.9134275e-10
-6.1777885e-08
1.2163742e-10
-4.0958109e-08
7.6417409e-11
-2.7033897e-08
4.7230714e-11
-1.773882e-08
2.8529405e-11
-1.1537285e-08
1.6663504e-11
-7.4054027e-09
9.2702105e-12
-4.6612752e-09
4.7834362e-12
-2.8489615e-09
2.1860496e-12
-1.6622537e-09
7.9433424e-13
-8.948259e-10
1.6329144e-13
-4.0738916e-10
-1.0586501e-10
-1.2565039e-08
-4.3533951e-05
-2.0007995e-08
-3.5730181e-05
-1.6504944e-08
-2.810177e-05
-5.6824467e-09
-2.0415857e-05
3.5925206e-09
-1.3878476e-05
7.9033668e-09
-9.1333055e-06
8.8838981e-09
-6.0306259e-06
8.138564e-09
-4.0510581e-06
6.6298039e-09
-2.8019058e-06
5.0539834e-09
-1.9616146e-06
3.7664549e-09
-1.3486441e-06
2.7853201e-09
-9.14695e-07
2.0466567e-09
-6.2856567e-07
1.4672015e-09
-4.3601934e-07
1.0167112e-09
-3.002113e-07
6.8718664e-10
-2.0432738e-07
4.5563238e-10
-1.3798765e-07
2.9697975e-10
-9.2549399e-08
1.9089121e-10
-6.1671798e-08
1.2135589e-10
-4.0888593e-08
7.6251222e-11
-2.6988795e-08
4.7136039e-11
-1.7709718e-08
2.8480004e-11
-1.1518631e-08
1.6641504e-11
-7.393573e-09
9.2642859e-12
-4.653902e-09
4.7887477e-12
-2.8444902e-09
2.1900765e-12
-1.6596615e-09
7.962934e-13
-8.9343767e-10
1.6297418e-13
-4.0675978e-10
-1.0570204e-10
-1.2569241e-08
-4.3521382e-05
-2.0042804e-08
-3.5722707e-05
-1.6608007e-08
-2.8105205e-05
-5.7837863e-09
-2.0426681e-05
3.5214242e-09
-1.3887781e-05
7.8637297e-09
-9.1376479e-06
8.8606081e-09
-6.0316228e-06
8.1226016e-09
-4.0503201e-06
6.618054e-09
-2.8004012e-06
5.0454263e-09
-1.960042e-06
3.7600496e-09
-1.3473587e-06
2.7802815e-09
-9.1371524e-07
2.0425225e-09
-6.278279e-07
1.4638981e-09
-4.3544073e-07
1.0143295e-09
-2.9976172e-07
6.8552322e-10
-2.0399859e-07
4.5449361e-10
-1.3775662e-07
2.9620715e-10
-9.2391131e-08
1.9038702e-10
-6.1565977e-08
1.2102982e-10
-4.0819248e-08
7.6036227e-11
-2.6943802e-08
4.6996334e-11
-1.7680686e-08
2.8383138e-11
-1.150002e-08
1.6576144e-11
-7.3817697e-09
9.2186921e-12
-4.6465449e-09
4.7554688e-12
-2.840029e-09
2.172168e-12
-1.657075e-09
7.891843e-13
-8.920525e-10
1.626382e-13
-4.0613168e-10
-1.055394e-10
-1.257474e-08
-4.3508807e-05
-2.0079113e-08
-3.5715203e-05
-1.6711319e-08
-2.8108572e-05
-5.8864324e-09
-2.0437506e-05
3.4486068e-09
-1.3897116e-05
7.822984e-09
-9.1420222e-06
8.8372131e-09
-6.032637e-06
8.1062728e-09
-4.0495892e-06
6.6060413e-09
-2.798901e-06
5.0367891e-09
-1.9584728e-06
3.7536304e-09
-1.3460756e-06
2.7752807e-09
-9.1273691e-07
2.0383628e-09
-6.2709098e-07
1.4606902e-09
-4.3486308e-07
1.0118826e-09
-2.9931291e-07
6.8379932e-10
-2.0367053e-07
4.5331599e-10
-1.3752613e-07
2.9545275e-10
-9.2233293e-08
1.8993793e-10
-6.1460464e-08
1.207734e-10
-4.0750107e-08
7.5899899e-11
-2.6898932e-08
4.6929197e-11
-1.7651733e-08
2.8364064e-11
-1.148146e-08
1.6578701e-11
-7.3699981e-09
9.2335127e-12
-4.6392072e-09
4.7759136e-12
-2.8355798e-09
2.1860882e-12
-1.6544955e-09
7.9523486e-13
-8.9067104e-10
1.6218226e-13
-4.0550529e-10
-1.0537722e-10
-1.2581228e-08
-4.3496226e-05
-2.0116209e-08
-3.5707668e-05
-1.6815943e-08
-2.8111873e-05
-5.9901997e-09
-2.0448332e-05
3.3748131e-09
-1.3906481e-05
7.7817631e-09
-9.1464292e-06
8.8131652e-09
-6.0336684e-06
8.089648e-09
-4.0488657e-06
6.5937998e-09
-2.7974051e-06
5.028023e-09
-1.956907e-06
3.7470352e-09
-1.3447946e-06
2.7701262e-09
-9.1176002e-07
2.0342421e-09
-6.2635508e-07
1.4573463e-09
-4.342862e-07
1.0093479e-09
-2.988649e-07
6.8196063e-10
-2.0334317e-07
4.5204176e-10
-1.3729621e-07
2.9460684e-10
-9.2075878e-08
1.8937803e-10
-6.1355235e-08
1.2041027e-10
-4.0681155e-08
7.5657963e-11
-2.6854183e-08
4.6768385e-11
-1.7622856e-08
2.8251948e-11
-1.1462947e-08
1.6502557e-11
-7.3582566e-09
9.1800479e-12
-4.6318875e-09
4.7367056e-12
-2.8311412e-09
2.1644545e-12
-1.6519222e-09
7.8647153e-13
-8.8929278e-10
1.6179844e-13
-4.0488042e-10
-1.0521542e-10
-1.2588377e-08
-4.3483638e-05
-2.015335e-08
-3.5700103e-05
-1.6921322e-08
-2.8115105e-05
-6.0950655e-09
-2.0459158e-05
3.2995417e-09
-1.3915876e-05
7.7397342e-09
-9.1508694e-06
8.7886588e-09
-6.0347173e-06
8.0729735e-09
-4.04815e-06
6.5814951e-09
-2.7959136e-06
5.0191741e-09
-1.9553447e-06
3.7403195e-09
-1.3435157e-06
2.7648633e-09
-9.1078457e-07
2.0300765e-09
-6.2562029e-07
1.4540242e-09
-4.3371016e-07
1.0069834e-09
-2.9841786e-07
6.803199e-10
-2.0301652e-07
4.5094666e-10
-1.3706683e-07
2.938879e-10
-9.1918837e-08
1.8891679e-10
-6.1250264e-08
1.2012127e-10
-4.0612375e-08
7.5485826e-11
-2.6809549e-08
4.6668768e-11
-1.7594049e-08
2.8199511e-11
-1.144448e-08
1.64786e-11
-7.3465429e-09
9.173287e-12
-4.6245853e-09
4.741204e-12
-2.8267126e-09
2.1681877e-12
-1.6493547e-09
7.8825157e-13
-8.8791758e-10
1.6144421e-13
-4.0425698e-10
-1.0505397e-10
-1.2596414e-08
-4.3471041e-05
-2.0190864e-08
-3.5692508e-05
-1.7027298e-08
-2.8118268e-05
-6.2006903e-09
-2.0469985e-05
3.2235446e-09
-1.39253e-05
7.6973179e-09
-9.1553432e-06
8.7640506e-09
-6.035784e-06
8.0561927e-09
-4.0474421e-06
6.5691477e-09
-2.7944266e-06
5.0102843e-09
-1.9537858e-06
3.7336677e-09
-1.3422391e-06
2.7596941e-09
-9.0981061e-07
2.0258321e-09
-6.2488642e-07
1.4507034e-09
-4.3313505e-07
1.0044677e-09
-2.9797161e-07
6.7853842e-10
-2.0269061e-07
4.497024e-10
-1.36838e-07
2.9304491e-10
-9.1762195e-08
1.8836696e-10
-6.1145585e-08
1.197639e-10
-4.0543782e-08
7.5251517e-11
-2.6765037e-08
4.6517322e-11
-1.7565321e-08
2.8095843e-11
-1.142606e-08
1.6410054e-11
-7.3348593e-09
9.1267078e-12
-4.6173021e-09
4.7084014e-12
-2.8222954e-09
2.1505574e-12
-1.6467936e-09
7.8128004e-13
-8.865459e-10
1.6106131e-13
-4.0363505e-10
-1.0489291e-10
-1.2605427e-08
-4.3458436e-05
-2.0229115e-08
-3.5684885e-05
-1.7133111e-08
-2.8121364e-05
-6.3069639e-09
-2.0480811e-05
3.1466324e-09
-1.3934754e-05
7.6547183e-09
-9.1598513e-06
8.7392461e-09
-6.0368685e-06
8.0391104e-09
-4.046742e-06
6.556676e-09
-2.7929441e-06
5.0013035e-09
-1.9522305e-06
3.7270315e-09
-1.3409648e-06
2.7545614e-09
-9.0883816e-07
2.021633e-09
-6.2415348e-07
1.4473912e-09
-4.3256082e-07
1.0019469e-09
-2.9752617e-07
6.7674286e-10
-2.0236543e-07
4.4849071e-10
-1.3660974e-07
2.922789e-10
-9.1606007e-08
1.8791471e-10
-6.1041222e-08
1.1950748e-10
-4.0475397e-08
7.5119344e-11
-2.6720652e-08
4.6453889e-11
-1.7536674e-08
2.8080875e-11
-1.1407691e-08
1.6414605e-11
-7.3232071e-09
9.1433298e-12
-4.6100382e-09
4.7296268e-12
-2.8178903e-09
2.1650566e-12
-1.6442393e-09
7.8764533e-13
-8.851779e-10
1.6063052e-13
-4.0301472e-10
-1.0473228e-10
-1.2614945e-08
-4.3445821e-05
-2.0267915e-08
-3.5677232e-05
-1.7239288e-08
-2.8124393e-05
-6.4140137e-09
-2.0491636e-05
3.0686295e-09
-1.3944237e-05
7.6114311e-09
-9.1643941e-06
8.7144999e-09
-6.0379716e-06
8.0220172e-09
-4.0460495e-06
6.5441627e-09
-2.7914663e-06
4.9921956e-09
-1.9506785e-06
3.720218e-09
-1.3396928e-06
2.7491959e-09
-9.0786715e-07
2.0173505e-09
-6.2342163e-07
1.4439212e-09
-4.3198741e-07
9.9945548e-10
-2.9708169e-07
6.7497023e-10
-2.0204096e-07
4.4727548e-10
-1.3638204e-07
2.9146668e-10
-9.1450217e-08
1.8737273e-10
-6.0937128e-08
1.1915485e-10
-4.0407196e-08
7.4881556e-11
-2.6676381e-08
4.6295459e-11
-1.75081e-08
2.7969306e-11
-1.1389369e-08
1.6338586e-11
-7.3115844e-09
9.0895156e-12
-4.6027919e-09
4.6903972e-12
-2.8134959e-09
2.143436e-12
-1.6416914e-09
7.7894935e-13
-8.8381323e-10
1.6024264e-13
-4.0239588e-10
-1.0457204e-10
-1.2624758e-08
-4.3433196e-05
-2.0306837e-08
-3.566955e-05
-1.7346366e-08
-2.8127353e-05
-6.5220434e-09
-2.0502461e-05
2.9898666e-09
-1.3953748e-05
7.5678605e-09
-9.1689721e-06
8.6892666e-09
-6.039093e-06
8.0049391e-09
-4.0453652e-06
6.5316854e-09
-2.789993e-06
4.983122e-09
-1.94913e-06
3.7134276e-09
-1.3384231e-06
2.7439051e-09
-9.0689764e-07
2.0131687e-09
-6.2269089e-07
1.4406145e-09
-4.3141487e-07
9.9702034e-10
-2.966381e-07
6.7328369e-10
-2.0171724e-07
4.461325e-10
-1.3615489e-07
2.9070671e-10
-9.1294809e-08
1.8688255e-10
-6.0833304e-08
1.1884521e-10
-4.0339173e-08
7.4694089e-11
-2.6632232e-08
4.618464e-11
-1.7479601e-08
2.7909835e-11
-1.1371096e-08
1.6310567e-11
-7.2999924e-09
9.0800071e-12
-4.5955645e-09
4.6933428e-12
-2.8091128e-09
2.1464579e-12
-1.6391501e-09
7.8042419e-13
-8.8245201e-10
1.5981779e-13
-4.0177869e-10
-1.0441222e-10
-1.2634726e-08
-4.3420561e-05
-2.0346114e-08
-3.5661838e-05
-1.7453827e-08
-2.8130246e-05
-6.6306523e-09
-2.0513284e-05
2.909931e-09
-1.3963289e-05
7.523871e-09
-9.173586e-06
8.6639053e-09
-6.040233e-06
7.9879044e-09
-4.0446892e-06
6.5192608e-09
-2.7885244e-06
4.9741166e-09
-1.9475848e-06
3.7066905e-09
-1.3371557e-06
2.7386904e-09
-9.0592965e-07
2.0088775e-09
-6.2196107e-07
1.4373043e-09
-4.3084331e-07
9.944379e-10
-2.9619522e-07
6.714256e-10
-2.0139424e-07
4.4483621e-10
-1.359283e-07
2.8984283e-10
-9.1139829e-08
1.8632487e-10
-6.0729785e-08
1.1848503e-10
-4.0271342e-08
7.4460612e-11
-2.6588208e-08
4.603464e-11
-1.745118e-08
2.78074e-11
-1.135287e-08
1.6243107e-11
-7.2884299e-09
9.0342399e-12
-4.5883555e-09
4.6606304e-12
-2.8047402e-09
2.1288192e-12
-1.6366148e-09
7.7334086e-13
-8.8109396e-10
1.594551e-13
-4.0116298e-10
-1.0425277e-10
-1.264476e-08
-4.3407917e-05
-2.0386215e-08
-3.5654097e-05
-1.7561548e-08
-2.813307e-05
-6.7396499e-09
-2.0524106e-05
2.829687e-09
-1.3972858e-05
7.4797121e-09
-9.178236e-06
8.6386629e-09
-6.041392e-06
7.9706702e-09
-4.0440212e-06
6.5066861e-09
-2.7870604e-06
4.9649885e-09
-1.9460431e-06
3.6998787e-09
-1.3358906e-06
2.7333725e-09
-9.0496315e-07
2.004529e-09
-6.2123222e-07
1.4338039e-09
-4.302726e-07
9.9194404e-10
-2.9575336e-07
6.6966725e-10
-2.0107199e-07
4.4366441e-10
-1.3570229e-07
2.8910516e-10
-9.0985292e-08
1.858891e-10
-6.062657e-08
1.1823822e-10
-4.0203712e-08
7.4333623e-11
-2.6544306e-08
4.5973967e-11
-1.7422837e-08
2.7792877e-11
-1.1334693e-08
1.6247426e-11
-7.2768974e-09
9.0504744e-12
-4.5811653e-09
4.6813706e-12
-2.8003789e-09
2.1427759e-12
-1.6340858e-09
7.7944875e-13
-8.7973936e-10
1.5906107e-13
-4.0054879e-10
-1.0409371e-10
-1.2654874e-08
-4.3395262e-05
-2.0427005e-08
-3.5646325e-05
-1.7668531e-08
-2.8135829e-05
-6.8490321e-09
-2.0534925e-05
2.7483481e-09
-1.3982456e-05
7.4354289e-09
-9.1829231e-06
8.6132147e-09
-6.0425698e-06
7.953225e-09
-4.0433612e-06
6.4939286e-09
-2.7856011e-06
4.9557377e-09
-1.944505e-06
3.6929704e-09
-1.3346278e-06
2.7279109e-09
-9.039981e-07
2.0001792e-09
-6.2050448e-07
1.4303413e-09
-4.2970278e-07
9.8940721e-10
-2.9531242e-07
6.678854e-10
-2.0075048e-07
4.4244108e-10
-1.3547685e-07
2.8827549e-10
-9.0831144e-08
1.8533011e-10
-6.0523624e-08
1.1787307e-10
-4.013627e-08
7.4085487e-11
-2.6500521e-08
4.5809328e-11
-1.7394572e-08
2.7677066e-11
-1.1316565e-08
1.6168608e-11
-7.2653959e-09
8.9952393e-12
-4.5739944e-09
4.641943e-12
-2.7960297e-09
2.121162e-12
-1.6315638e-09
7.7086468e-13
-8.7838855e-10
1.5864362e-13
-3.999362e-10
-1.0393506e-10
-1.2664965e-08
-4.3382597e-05
-2.0467649e-08
-3.5638522e-05
-1.7775887e-08
-2.8138521e-05
-6.9590227e-09
-2.0545742e-05
2.6664404e-09
-1.3992081e-05
7.3906103e-09
-9.1876473e-06
8.5877977e-09
-6.043767e-06
7.9359894e-09
-4.0427094e-06
6.4812792e-09
-2.7841464e-06
4.9466528e-09
-1.9429703e-06
3.6862522e-09
-1.3333674e-06
2.7226805e-09
-9.0303454e-07
1.9960208e-09
-6.1977781e-07
1.4271741e-09
-4.2913394e-07
9.8694354e-10
-2.9487219e-07
6.6614893e-10
-2.004297e-07
4.4125527e-10
-1.3525195e-07
2.8749346e-10
-9.0677398e-08
1.8483114e-10
-6.0420963e-08
1.175615e-10
-4.0069014e-08
7.3898775e-11
-2.645686e-08
4.569985e-11
-1.7366383e-08
2.7619502e-11
-1.1298486e-08
1.6142116e-11
-7.2539253e-09
8.9865376e-12
-4.5668418e-09
4.6451744e-12
-2.7916918e-09
2.1244806e-12
-1.6290484e-09
7.7252733e-13
-8.7704122e-10
1.5822372e-13
-3.9932518e-10
-1.0377684e-10
-1.2675046e-08
-4.3369922e-05
-2.0507537e-08
-3.563069e-05
-1.7883399e-08
-2.8141145e-05
-7.0694579e-09
-2.0556556e-05
2.5836067e-09
-1.4001734e-05
7.3457394e-09
-9.1924094e-06
8.5620457e-09
-6.0449833e-06
7.9187743e-09
-4.0420662e-06
6.4686433e-09
-2.7826962e-06
4.9376121e-09
-1.9414393e-06
3.6795716e-09
-1.3321093e-06
2.7175029e-09
-9.0207248e-07
1.9917212e-09
-6.1905203e-07
1.423718e-09
-4.2856595e-07
9.8442231e-10
-2.9443289e-07
6.6433619e-10
-2.0010963e-07
4.4000494e-10
-1.3502762e-07
2.8667482e-10
-9.0524082e-08
1.8430999e-10
-6.0318599e-08
1.1722728e-10
-4.000194e-08
7.3684435e-11
-2.6413319e-08
4.5562906e-11
-1.7338266e-08
2.7526333e-11
-1.1280452e-08
1.6081231e-11
-7.242482e-09
8.9446156e-12
-4.5597056e-09
4.6151782e-12
-2.7873632e-09
2.108221e-12
-1.6265385e-09
7.6595912e-13
-8.7569666e-10
1.5789034e-13
-3.9871548e-10
-1.0361895e-10
-1.2685266e-08
-4.3357237e-05
-2.0547016e-08
-3.5622828e-05
-1.7990602e-08
-2.8143701e-05
-7.180019e-09
-2.0567367e-05
2.5003597e-09
-1.4011415e-05
7.3007251e-09
-9.1972098e-06
8.5365462e-09
-6.0462191e-06
7.9015323e-09
-4.0414312e-06
6.4560178e-09
-2.7812507e-06
4.928583e-09
-1.9399119e-06
3.6728614e-09
-1.3308536e-06
2.7122605e-09
-9.011119e-07
1.9874462e-09
-6.1832721e-07
1.4202937e-09
-4.2799882e-07
9.819726e-10
-2.9399456e-07
6.6264074e-10
-1.9979032e-07
4.3888267e-10
-1.3480386e-07
2.8596281e-10
-9.0371187e-08
1.8388896e-10
-6.0216528e-08
1.1698741e-10
-3.9935063e-08
7.3563636e-11
-2.63699e-08
4.5505546e-11
-1.7310228e-08
2.7515191e-11
-1.1262467e-08
1.6088032e-11
-7.2310697e-09
8.9636079e-12
-4.5525892e-09
4.6375772e-12
-2.7830463e-09
2.1234412e-12
-1.6240352e-09
7.7251124e-13
-8.7435568e-10
1.5745816e-13
-3.9810749e-10
-1.0346149e-10
-1.2695597e-08
-4.3344541e-05
-2.0586686e-08
-3.5614937e-05
-1.8096671e-08
-2.8146191e-05
-7.2905985e-09
-2.0578173e-05
2.4166621e-09
-1.4021122e-05
7.2558107e-09
-9.2020489e-06
8.5112564e-09
-6.0474745e-06
7.884253e-09
-4.0408042e-06
6.4434094e-09
-2.7798099e-06
4.9195527e-09
-1.938388e-06
3.6661342e-09
-1.3296002e-06
2.7069843e-09
-9.0015276e-07
1.9832875e-09
-6.1760351e-07
1.4170441e-09
-4.2743259e-07
9.7943772e-10
-2.9355696e-07
6.6083359e-10
-1.9947174e-07
4.3762503e-10
-1.3458065e-07
2.8510002e-10
-9.0218682e-08
1.8330374e-10
-6.0114734e-08
1.1660448e-10
-3.986838e-08
7.3302351e-11
-2.6326602e-08
4.5332395e-11
-1.7282271e-08
2.7393104e-11
-1.1244533e-08
1.6004741e-11
-7.2196899e-09
8.9055019e-12
-4.5454934e-09
4.596031e-12
-2.7787418e-09
2.1004391e-12
-1.621539e-09
7.633155e-13
-8.7301859e-10
1.5702129e-13
-3.9750122e-10
-1.0330447e-10
-1.2705789e-08
-4.3331835e-05
-2.0626034e-08
-3.5607017e-05
-1.820199e-08
-2.8148615e-05