/*--------------------------------*- C++ -*----------------------------------*\
| =========                 |                                                 |
| \\      /  F ield         | OpenFOAM: The Open Source CFD Toolbox           |
|  \\    /   O peration     | Version:  v2012                                 |
|   \\  /    A nd           | Website:  www.openfoam.com                      |
|    \\/     M anipulation  |                                                 |
\*---------------------------------------------------------------------------*/
FoamFile
{
    version     2.0;
    format      ascii;
    class       volScalarField;
    location    "850";
    object      rho;
}
// * * * * * * * * * * * * * * * * * * * * * * * * * * * * * * * * * * * * * //

dimensions      [1 -3 0 0 0 0 0];


internalField   nonuniform List<scalar> 
24000
(
22.087075
21.597327
19.909675
16.699943
13.023263
9.8284146
7.4631391
5.8046359
4.7071848
3.9053942
3.2226578
2.6863574
2.3239832
2.0737515
1.8833166
1.7352629
1.6224222
1.5364084
1.4704513
1.4197239
1.3805186
1.3499245
1.3257921
1.3065706
1.2911367
1.2786636
1.2685313
1.2602674
1.2535056
1.2479597
22.089225
21.601977
19.923098
16.719622
13.040849
9.8405392
7.4704266
5.8083373
4.7082663
3.9050783
3.2219296
2.6854841
2.3230258
2.0726919
1.8822154
1.7342069
1.62144
1.5355072
1.4696284
1.4189708
1.3798218
1.3492724
1.3251749
1.3059806
1.2905681
1.2781116
1.2679925
1.2597389
1.2529852
1.2474458
22.091416
21.606708
19.936743
16.739383
13.058626
9.8524551
7.4772794
5.8115326
4.7088513
3.9043532
3.2208897
2.6843317
2.3218408
2.0714567
1.8809768
1.7330457
1.6203806
1.5345455
1.4687564
1.418176
1.3790896
1.3485889
1.3245289
1.3053635
1.2899732
1.2775342
1.2674287
1.2591856
1.2524405
1.2469077
22.093613
21.611459
19.950367
16.759115
13.076403
9.8642338
7.483943
5.8145583
4.7093603
3.9035959
3.2198034
2.6831678
2.3206831
2.0702772
1.8798219
1.731995
1.6194486
1.5337191
1.4680182
1.4175075
1.3784743
1.3480132
1.323983
1.3048406
1.2894681
1.2770432
1.2669489
1.2587147
1.2519768
1.2464495
22.095811
21.616211
19.963964
16.778823
13.09421
9.8759449
7.4905019
5.817483
4.7097956
3.9027786
3.2186514
2.6819474
2.3194837
2.0690655
1.8786414
1.7309173
1.6184861
1.5328594
1.4672445
1.4168041
1.3778252
1.3474056
1.3234072
1.3042892
1.2889359
1.2765258
1.2664433
1.2582185
1.2514881
1.2459667
22.098009
21.620954
19.977518
16.798505
13.112052
9.8876311
7.4970126
5.8203541
4.7101918
3.9019302
3.2174619
2.6806948
2.3182603
2.067837
1.8774475
1.7298304
1.6175172
1.5319949
1.4664677
1.4160986
1.377174
1.3467959
1.3228292
1.3037357
1.2884014
1.2760064
1.2659356
1.2577204
1.2509972
1.2454819
22.100207
21.625682
19.991025
16.818177
13.129935
9.8993149
7.5035
5.8231956
4.7105642
3.9010612
3.2162467
2.6794187
2.3170181
2.0665949
1.8762424
1.7287341
1.6165407
1.5311235
1.4656855
1.4153877
1.3765182
1.3461818
1.322247
1.303178
1.2878629
1.275483
1.2654242
1.2572184
1.2505027
1.2449935
22.102402
21.630393
20.004485
16.837831
13.147858
9.9110123
7.509981
5.8260212
4.7109234
3.9001805
3.2150159
2.6781277
2.3157655
2.0653443
1.8750325
1.7276334
1.6155601
1.5302495
1.4649003
1.4146742
1.3758604
1.3455659
1.3216629
1.3026185
1.2873226
1.2749578
1.264911
1.2567146
1.2500066
1.2445034
22.104596
21.635086
20.017899
16.857482
13.165828
9.9227311
7.5164683
5.8288406
4.7112762
3.8992936
3.213776
2.6768276
2.3145061
2.064089
1.8738181
1.7265302
1.6145778
1.5293741
1.4641138
1.41396
1.3752015
1.3449491
1.3210781
1.3020584
1.2867816
1.2744318
1.264397
1.25621
1.2495098
1.2440124
22.106788
21.63976
20.031265
16.877125
13.18384
9.9344792
7.5229652
5.8316602
4.7116271
3.8984047
3.2125316
2.6755226
2.3132422
2.0628306
1.8726019
1.7254259
1.6135954
1.5284982
1.4633278
1.4132461
1.3745426
1.3443322
1.3204933
1.3014982
1.2862406
1.2739058
1.2638828
1.2557054
1.2490126
1.2435212
22.108977
21.644412
20.04458
16.896776
13.201899
9.9462595
7.5294788
5.8344847
4.7119793
3.8975162
3.2112855
2.6742155
2.3119765
2.0615725
1.8713876
1.7243226
1.6126136
1.5276234
1.4625427
1.4125329
1.3738846
1.343716
1.319909
1.3009385
1.2857001
1.2733803
1.2633692
1.2552013
1.2485159
1.2430306
22.111166
21.649042
20.057843
16.916437
13.220001
9.9580769
7.5360121
5.8373164
4.7123349
3.8966299
3.2100395
2.6729079
2.3107117
2.0603146
1.8701735
1.7232209
1.6116331
1.5267502
1.4617585
1.4118205
1.3732278
1.3431009
1.3193256
1.3003795
1.2851603
1.2728556
1.2628564
1.254698
1.24802
1.2425408
22.113353
21.653652
20.071056
16.936106
13.23815
9.9699324
7.5425657
5.8401568
4.7126953
3.8957475
3.2087952
2.6716012
2.3094474
2.0590573
1.8689603
1.7221205
1.6106548
1.5258785
1.4609759
1.4111097
1.3725721
1.342487
1.3187433
1.2998218
1.2846214
1.2723319
1.2623445
1.2541954
1.2475251
1.2420519
22.115538
21.658241
20.08422
16.955791
13.256344
9.9818299
7.5491447
5.8430076
4.7130616
3.89487
3.2075538
2.6702961
2.3081838
2.0578028
1.8677511
1.7210228
1.6096785
1.5250086
1.4601956
1.4104008
1.3719177
1.3418742
1.3181624
1.2992652
1.2840839
1.271809
1.2618336
1.2536938
1.2470311
1.2415637
22.117722
21.662811
20.097333
16.975483
13.274583
9.9937689
7.5557473
5.8458706
4.7134346
3.8939979
3.2063159
2.6689938
2.3069227
2.0565503
1.8665437
1.7199279
1.6087045
1.5241414
1.4594171
1.4096937
1.3712652
1.3412631
1.3175828
1.29871
1.2835476
1.2712876
1.2613238
1.2531934
1.2465382
1.2410767
22.119905
21.66736
20.110394
16.995192
13.292869
10.005753
7.5623761
5.8487464
4.7138148
3.8931316
3.205082
2.6676941
2.3056646
2.0553
1.8653382
1.7188353
1.6077333
1.5232766
1.4586405
1.4089881
1.3706146
1.3406536
1.3170048
1.2981561
1.2830126
1.2707675
1.2608154
1.2526945
1.2460464
1.2405909
22.122087
21.671888
20.123408
17.01491
13.311199
10.017782
7.5690332
5.8516348
4.7142027
3.8922713
3.2038523
2.6663977
2.3044087
2.0540524
1.8641371
1.7177457
1.6067648
1.5224137
1.4578661
1.4082847
1.3699656
1.3400459
1.3164282
1.2976037
1.282479
1.2702488
1.2603084
1.2521968
1.245556
1.2401066
22.124268
21.676397
20.136373
17.034645
13.329577
10.029858
7.5757164
5.8545363
4.7145987
3.8914171
3.2026269
2.6651045
2.3031547
2.0528078
1.8629387
1.7166596
1.6057988
1.5215535
1.4570945
1.4075836
1.3693182
1.3394396
1.3158533
1.2970528
1.2819467
1.2697313
1.2598027
1.2517002
1.245067
1.2396234
22.126449
21.680886
20.149288
17.054389
13.347997
10.04198
7.5824297
5.857452
4.7150028
3.8905694
3.2014064
2.6638152
2.3019046
2.0515663
1.8617424
1.715576
1.6048357
1.5206964
1.4563248
1.4068844
1.3686729
1.3388351
1.31528
1.2965035
1.2814161
1.2692152
1.2592982
1.2512049
1.2445793
1.2391415
22.12863
21.685357
20.162153
17.074148
13.366465
10.054151
7.5891713
5.8603827
4.7154154
3.889728
3.2001909
2.6625295
2.3006577
2.050327
1.8605504
1.7144955
1.6038757
1.5198413
1.4555572
1.406187
1.3680297
1.3382324
1.3147083
1.2959557
1.280887
1.2687006
1.2587951
1.2507111
1.2440927
1.2386607
22.130812
21.689809
20.174968
17.09392
13.384976
10.066371
7.5959421
5.8633277
4.7158366
3.8888936
3.1989804
2.6612475
2.2994133
2.0490917
1.859362
1.7134187
1.6029185
1.5189887
1.4547922
1.4054919
1.3673882
1.3376316
1.3141382
1.2954093
1.2803593
1.2681875
1.2582935
1.2502188
1.2436075
1.2381813
22.132993
21.694245
20.187736
17.113703
13.403533
10.078642
7.6027446
5.8662869
4.7162664
3.8880663
3.197775
2.6599692
2.2981715
2.0478592
1.8581754
1.7123446
1.6019639
1.5181392
1.4540299
1.4047992
1.3667484
1.3370324
1.3135697
1.2948646
1.2798329
1.2676759
1.2577934
1.2497278
1.2431237
1.2377035
22.135174
21.698664
20.200454
17.133502
13.422135
10.090962
7.6095759
5.869261
4.7167051
3.8872461
3.1965744
2.6586949
2.2969337
2.0466291
1.8569928
1.7112736
1.6010125
1.5172923
1.4532695
1.4041084
1.3661107
1.3364348
1.313003
1.2943215
1.2793081
1.2671656
1.2572947
1.249238
1.2426414
1.2372269
22.137355
21.703067
20.213123
17.15331
13.44078
10.103335
7.6164396
5.8722508
4.7171526
3.886433
3.195379
2.6574246
2.2956991
2.0454029
1.8558144
1.7102061
1.600064
1.5164475
1.4525113
1.4034194
1.365475
1.3358391
1.3124378
1.2937799
1.2787849
1.2666566
1.2567971
1.2487495
1.2421603
1.2367515
22.139536
21.707456
20.225741
17.173133
13.459472
10.115759
7.6233342
5.8752562
4.7176091
3.885627
3.1941887
2.656158
2.2944668
2.0441795
1.8546379
1.7091417
1.5991181
1.5156055
1.4517558
1.4027326
1.3648413
1.3352452
1.3118744
1.2932399
1.2782632
1.2661492
1.256301
1.2482625
1.2416805
1.2362774
22.141716
21.71183
20.238312
17.192965
13.478205
10.128237
7.6302598
5.8782764
4.7180746
3.8848279
3.1930037
2.6548952
2.2932375
2.042959
1.8534646
1.70808
1.5981753
1.5147666
1.4510028
1.4020483
1.3642091
1.3346531
1.3113124
1.2927012
1.2777429
1.2656433
1.2558064
1.247777
1.2412019
1.2358045
22.143897
21.71619
20.250834
17.212812
13.496985
10.140767
7.6372194
5.8813119
4.7185491
3.8840356
3.1918239
2.6536362
2.2920122
2.0417413
1.8522962
1.7070219
1.5972354
1.5139299
1.4502516
1.4013658
1.3635789
1.3340625
1.3107522
1.2921643
1.277224
1.2651388
1.2553132
1.2472928
1.2407247
1.2353333
22.146079
21.720536
20.263308
17.232668
13.515806
10.153354
7.6442097
5.8843637
4.7190328
3.8832502
3.190649
2.6523812
2.2907897
2.040527
1.8511296
1.705967
1.5962982
1.5130954
1.4495027
1.4006851
1.3629506
1.3334737
1.3101935
1.2916289
1.2767065
1.2646356
1.2548214
1.2468098
1.2402491
1.2348633
22.14826
21.724867
20.275732
17.252537
13.534673
10.165994
7.6512342
5.8874319
4.7195255
3.8824717
3.1894792
2.6511299
2.2895695
2.0393159
1.8499657
1.7049146
1.5953637
1.5122639
1.4487566
1.4000066
1.3623244
1.3328867
1.3096365
1.291095
1.2761908
1.2641337
1.2543308
1.246328
1.2397747
1.2343945
22.150442
21.729183
20.288107
17.272416
13.553581
10.178692
7.6582914
5.8905155
4.7200275
3.8817
3.1883145
2.6498822
2.2883526
2.0381069
1.8488069
1.7038656
1.5944324
1.5114351
1.4480126
1.3993304
1.3616997
1.3323014
1.3090809
1.2905624
1.2756763
1.2636333
1.2538414
1.2458477
1.2393014
1.2339267
22.152625
21.733484
20.300438
17.292305
13.572532
10.191445
7.6653815
5.8936148
4.7205385
3.8809354
3.1871551
2.6486382
2.2871393
2.0369018
1.8476502
1.70282
1.5935038
1.5106084
1.4472705
1.3986562
1.3610768
1.3317177
1.308527
1.2900314
1.2751632
1.2631345
1.2533536
1.2453688
1.2388293
1.2334603
22.154808
21.73777
20.312719
17.312207
13.591528
10.204257
7.672507
5.8967304
4.7210586
3.8801781
3.1860008
2.6473981
2.2859285
2.0356994
1.8464955
1.7017769
1.5925776
1.5097841
1.4465306
1.3979836
1.3604559
1.3311356
1.3079747
1.289502
1.2746514
1.2626369
1.2528672
1.2448913
1.2383586
1.2329954
22.156991
21.742042
20.324951
17.332116
13.610562
10.217126
7.6796648
5.8998632
4.7215878
3.8794279
3.1848517
2.6461615
2.28472
2.0344996
1.8453459
1.7007369
1.5916544
1.5089629
1.4457936
1.3973131
1.359837
1.3305553
1.307424
1.2889741
1.2741412
1.2621406
1.2523821
1.2444148
1.2378894
1.2325318
22.159176
21.746299
20.337134
17.352037
13.629642
10.230055
7.6868588
5.9030119
4.7221261
3.8786849
3.1837075
2.6449285
2.2835149
2.0333026
1.8441988
1.6997002
1.590734
1.5081438
1.4450584
1.3966448
1.3592196
1.3299765
1.3068746
1.2884475
1.2736324
1.2616455
1.2518981
1.2439395
1.2374214
1.2320692
22.161361
21.750543
20.349273
17.371965
13.648759
10.243043
7.6940863
5.9061765
4.7226736
3.8779488
3.1825683
2.643699
2.2823129
2.0321087
1.8430534
1.6986662
1.5898161
1.5073268
1.4443252
1.3959786
1.3586038
1.3293996
1.3063268
1.2879223
1.273125
1.2611519
1.2514153
1.2434656
1.2369544
1.2316077
22.163548
21.754774
20.361364
17.391903
13.667921
10.256092
7.7013489
5.9093579
4.7232302
3.8772197
3.1814342
2.6424731
2.2811133
2.0309177
1.8419122
1.6976349
1.5889008
1.5065124
1.443594
1.3953138
1.3579899
1.328824
1.3057806
1.2873985
1.2726189
1.2606598
1.250934
1.2429931
1.2364886
1.2311474
22.165735
21.758992
20.373407
17.411849
13.687121
10.269203
7.7086477
5.9125568
4.723796
3.8764974
3.1803054
2.6412508
2.2799159
2.0297286
1.8407745
1.6966068
1.5879885
1.5057009
1.4428657
1.394651
1.3573779
1.3282501
1.305236
1.2868764
1.272114
1.2601689
1.2504542
1.2425219
1.2360241
1.2306886
22.167924
21.763198
20.3854
17.431803
13.706362
10.282375
7.7159805
5.9157722
4.7243709
3.8757821
3.1791816
2.6400318
2.2787217
2.028543
1.8396383
1.6955816
1.5870787
1.5048914
1.4421392
1.3939904
1.3567677
1.3276777
1.3046926
1.2863555
1.2716106
1.2596792
1.2499754
1.2420517
1.2355609
1.230231
22.170115
21.767392
20.397347
17.451767
13.725644
10.295612
7.7233509
5.9190038
4.7249552
3.8750735
3.1780629
2.6388163
2.2775305
2.0273601
1.8385051
1.6945588
1.5861712
1.5040839
1.4414144
1.3933319
1.3561589
1.3271071
1.3041509
1.2858361
1.2711086
1.2591906
1.2494979
1.2415827
1.2350991
1.2297746
22.172308
21.771576
20.409249
17.471735
13.744962
10.308911
7.7307555
5.9222526
4.7255487
3.8743718
3.1769491
2.6376041
2.2763413
2.0261792
1.8373764
1.693539
1.5852665
1.5032791
1.4406918
1.3926747
1.3555518
1.326538
1.3036104
1.2853179
1.2706079
1.2587035
1.2490214
1.2411149
1.2346383
1.2293191
22.174503
21.775748
20.421105
17.491712
13.764323
10.322277
7.7381976
5.9255194
4.7261514
3.8736771
3.1758404
2.6363954
2.2751542
2.025001
1.8362492
1.6925224
1.5843646
1.5024769
1.4399718
1.3920194
1.3549465
1.3259703
1.3030717
1.2848012
1.2701085
1.2582179
1.2485464
1.2406486
1.2341785
1.2288648
22.176699
21.77991
20.432912
17.511694
13.783718
10.335707
7.7456755
5.9288031
4.7267636
3.8729895
3.1747368
2.6351899
2.2739703
2.0238256
1.8351239
1.6915079
1.5834648
1.5016765
1.4392536
1.3913662
1.354343
1.3254042
1.3025342
1.2842859
1.2696102
1.2577334
1.2480726
1.2401834
1.2337198
1.2284116
22.178897
21.784059
20.44467
17.531682
13.803155
10.349205
7.7531897
5.9321037
4.7273852
3.8723091
3.1736385
2.6339878
2.2727891
2.0226528
1.8340037
1.6904964
1.5825675
1.5008782
1.4385371
1.390715
1.353741
1.3248396
1.3019982
1.2837719
1.2691133
1.25725
1.2476002
1.2397193
1.2332626
1.2279599
22.181096
21.788196
20.456383
17.551675
13.822626
10.36277
7.760742
5.9354218
4.7280162
3.8716357
3.1725454
2.6327888
2.2716096
2.0214816
1.8328852
1.6894878
1.5816731
1.5000827
1.4378226
1.3900653
1.3531405
1.3242767
1.3014635
1.2832592
1.2686179
1.2567677
1.2471287
1.2392562
1.2328066
1.2275093
22.183297
21.792321
20.468052
17.571673
13.842135
10.376405
7.7683295
5.9387584
4.7286567
3.8709694
3.1714572
2.6315932
2.2704322
2.0203136
1.8317681
1.6884817
1.5807811
1.4992896
1.4371109
1.3894173
1.3525418
1.3237151
1.3009303
1.2827478
1.2681237
1.2562869
1.2466583
1.2387943
1.2323517
1.2270597
22.1855
21.796433
20.479674
17.591677
13.861681
10.390109
7.7759561
5.9421125
4.7293069
3.87031
3.170374
2.6304007
2.2692578
2.0191481
1.8306554
1.6874781
1.5798911
1.498498
1.4364007
1.3887712
1.3519447
1.323155
1.3003985
1.2822377
1.2676306
1.2558073
1.2461891
1.2383337
1.2318977
1.2266109
22.187705
21.800534
20.491247
17.611683
13.881259
10.403883
7.7836181
5.9454838
4.7299667
3.8696575
3.169296
2.6292114
2.2680856
2.0179844
1.8295454
1.6864773
1.5790039
1.4977087
1.4356922
1.3881272
1.3513493
1.3225963
1.2998681
1.2817291
1.2671387
1.255329
1.2457214
1.2378745
1.2314447
1.2261633
22.189913
21.804624
20.502773
17.631694
13.900876
10.41773
7.7913188
5.9488733
4.7306362
3.8690119
3.1682232
2.6280251
2.2669151
2.016823
1.8284367
1.6854793
1.5781193
1.4969222
1.4349856
1.3874846
1.3507553
1.3220392
1.299339
1.2812217
1.2666481
1.2548517
1.2452548
1.2374162
1.230993
1.2257172
22.192124
21.808702
20.514254
17.651707
13.920523
10.431649
7.799056
5.952282
4.7313156
3.8683732
3.1671557
2.6268418
2.2657466
2.0156642
1.8273308
1.6844834
1.5772368
1.4961377
1.4342817
1.3868437
1.3501629
1.3214837
1.2988113
1.2807156
1.2661589
1.2543755
1.2447893
1.2369589
1.2305427
1.2252722
22.194338
21.81277
20.525691
17.671723
13.940207
10.445643
7.8068308
5.9557085
4.7320047
3.8677412
3.1660932
2.6256616
2.2645808
2.0145077
1.8262291
1.6834902
1.5763563
1.4953547
1.4335794
1.3862044
1.349572
1.3209292
1.2982847
1.2802105
1.2656709
1.2539004
1.2443246
1.2365025
1.2300933
1.224828
22.196553
21.816827
20.53708
17.691742
13.959922
10.459711
7.8146438
5.9591529
4.7327035
3.8671161
3.1650358
2.6244843
2.263417
2.0133525
1.8251285
1.6825
1.5754788
1.4945741
1.4328786
1.3855672
1.3489829
1.3203764
1.2977597
1.2797068
1.265184
1.2534269
1.2438612
1.2360475
1.2296449
1.2243847
22.19877
21.820875
20.548421
17.71176
13.97967
10.473855
7.822493
5.9626164
4.7334122
3.8664979
3.1639833
2.62331
2.2622546
2.0122002
1.8240294
1.6815118
1.5746037
1.4937964
1.4321797
1.3849317
1.3483952
1.3198249
1.297236
1.2792045
1.2646981
1.2529544
1.2433991
1.2355938
1.2291974
1.2239425
22.200989
21.824914
20.559715
17.731782
13.99945
10.488076
7.8303815
5.9660996
4.7341309
3.8658866
3.162936
2.6221384
2.2610941
2.0110503
1.8229354
1.6805262
1.5737303
1.4930202
1.4314834
1.3842976
1.3478089
1.319275
1.2967137
1.2787035
1.2642135
1.2524831
1.2429383
1.2351412
1.2287511
1.2235016
22.20321
21.828944
20.570965
17.751802
14.019259
10.502375
7.8383055
5.9696012
4.7348597
3.8652823
3.1618938
2.6209697
2.2599361
2.009902
1.8218428
1.6795433
1.5728594
1.4922457
1.4307886
1.383665
1.3472241
1.3187264
1.2961924
1.2782036
1.2637303
1.2520125
1.2424783
1.2346894
1.228306
1.2230618
22.205434
21.832965
20.58217
17.771824
14.039101
10.516752
7.8462688
5.9731217
4.7355987
3.864685
3.1608567
2.6198039
2.2587799
2.0087556
1.8207514
1.6785629
1.5719912
1.4914736
1.4300954
1.3830345
1.3466411
1.3181791
1.2956725
1.2777048
1.2632482
1.2515432
1.2420193
1.2342385
1.2278621
1.2226231
22.207659
21.836978
20.593329
17.791845
14.05897
10.531208
7.8542677
5.9766624
4.7363482
3.8640946
3.1598244
2.6186408
2.2576251
2.0076118
1.8196639
1.6775846
1.5711251
1.4907042
1.429404
1.3824057
1.3460595
1.3176332
1.295154
1.2772072
1.2627672
1.2510753
1.2415613
1.2337888
1.2274191
1.2221851
22.209886
21.840981
20.604439
17.811864
14.078872
10.545744
7.8623051
5.9802234
4.7371082
3.8635112
3.1587969
2.6174804
2.2564721
2.0064702
1.8185793
1.6766088
1.5702608
1.4899362
1.428715
1.3817783
1.3454792
1.3170886
1.2946368
1.2767111
1.2622873
1.2506085
1.2411047
1.2333404
1.2269769
1.2217481
22.212116
21.844974
20.615502
17.831884
14.098802
10.560358
7.8703787
5.9838037
4.7378791
3.8629346
3.1577738
2.6163225
2.2553215
2.0053299
1.8174957
1.6756359
1.5693992
1.4891698
1.4280277
1.3811522
1.3449003
1.3165455
1.2941207
1.276216
1.2618083
1.2501427
1.2406492
1.2328931
1.2265356
1.221312
22.214348
21.848956
20.626523
17.851898
14.118765
10.57505
7.8784897
5.9874041
4.738661
3.862365
3.1567553
2.6151674
2.2541728
2.0041922
1.8164142
1.6746649
1.56854
1.488406
1.4273418
1.3805281
1.344323
1.3160037
1.2936059
1.2757222
1.2613309
1.2496779
1.2401948
1.2324467
1.2260957
1.2208774
22.216583
21.852929
20.637499
17.871914
14.138763
10.589815
7.8866379
5.991026
4.7394541
3.8618022
3.1557411
2.6140149
2.2530254
2.003057
1.8153374
1.6736964
1.5676826
1.4876446
1.4266575
1.3799059
1.3437474
1.3154632
1.2930922
1.2752293
1.2608546
1.249214
1.2397412
1.2320011
1.2256569
1.2204438
22.218819
21.856892
20.648429
17.891925
14.158799
10.60465
7.8948224
5.9946686
4.7402587
3.8612464
3.1547313
2.612865
2.2518801
2.0019235
1.8142617
1.6727306
1.5668272
1.4868846
1.4259756
1.379285
1.343173
1.314924
1.2925801
1.2747377
1.2603793
1.2487515
1.2392886
1.2315565
1.2252191
1.220011
22.221059
21.860846
20.659311
17.911935
14.178887
10.619546
7.9030453
5.9983314
4.7410748
3.8606974
3.1537257
2.6117175
2.2507372
2.0007916
1.813187
1.6717669
1.5659746
1.4861262
1.4252955
1.3786653
1.3425998
1.314386
1.292069
1.2742474
1.2599049
1.2482901
1.238837
1.2311131
1.224782
1.2195789
22.2233
21.86479
20.670145
17.93194
14.199022
10.634501
7.9113041
6.0020155
4.7419025
3.8601553
3.1527242
2.6105726
2.2495961
1.9996623
1.8121168
1.6708054
1.5651241
1.4853704
1.4246168
1.3780474
1.3420282
1.3138496
1.2915592
1.2737582
1.2594316
1.2478298
1.2383868
1.2306709
1.2243458
1.2191478
22.225545
21.868726
20.680937
17.951938
14.21921
10.649516
7.9196021
6.0057219
4.7427419
3.85962
3.1517266
2.6094302
2.2484563
1.9985352
1.8110486
1.6698461
1.564275
1.4846167
1.4239394
1.3774312
1.341458
1.3133142
1.2910504
1.2732702
1.2589596
1.2473703
1.2379376
1.2302296
1.2239105
1.2187178
22.227792
21.872652
20.691687
17.971935
14.239446
10.664592
7.9279361
6.0094488
4.7435927
3.8590917
3.1507329
2.6082902
2.2473184
1.9974092
1.8099813
1.6688896
1.5634283
1.4838644
1.4232642
1.3768166
1.3408894
1.3127801
1.2905427
1.272783
1.2584887
1.2469117
1.2374892
1.2297892
1.2234767
1.2182891
22.230041
21.876571
20.702391
17.991921
14.259733
10.679729
7.9363099
6.0131969
4.7444551
3.8585703
3.1497432
2.6071525
2.2461827
1.9962854
1.8089164
1.6679347
1.5625842
1.4831135
1.422591
1.3762031
1.3403217
1.3122472
1.2900365
1.2722969
1.2580189
1.2464542
1.2370416
1.2293494
1.2230437
1.2178611
22.232295
21.880482
20.713046
18.011905
14.28007
10.694927
7.9447203
6.0169675
4.7453292
3.858056
3.1487576
2.606017
2.2450487
1.995164
1.8078554
1.6669821
1.5617417
1.4823652
1.421919
1.375591
1.3397555
1.3117155
1.2895313
1.2718122
1.2575499
1.245998
1.2365949
1.2289107
1.2226116
1.2174339
22.234553
21.884386
20.723655
18.031877
14.300455
10.710185
7.9531708
6.0207604
4.7462151
3.8575487
3.1477759
2.6048839
2.2439158
1.9940441
1.8067951
1.6660318
1.5609006
1.4816189
1.4212482
1.3749805
1.3391905
1.3111852
1.2890272
1.2713285
1.2570817
1.2455428
1.2361495
1.2284733
1.2221801
1.2170074
22.236814
21.888284
20.73422
18.051843
14.320894
10.725506
7.9616586
6.0245744
4.7471129
3.8570484
3.146798
2.6037531
2.2427848
1.9929254
1.8057359
1.6650836
1.5600622
1.4808737
1.4205794
1.3743719
1.3386271
1.3106561
1.2885242
1.2708459
1.2566148
1.2450884
1.2357053
1.228037
1.2217495
1.2165819
22.239077
21.892173
20.744744
18.0718
14.341378
10.740888
7.9701867
6.028411
4.7480228
3.8565551
3.1458239
2.6026245
2.2416558
1.9918089
1.8046809
1.6641373
1.5592259
1.48013
1.4199127
1.3737643
1.3380649
1.310128
1.2880221
1.2703641
1.2561491
1.2446347
1.2352618
1.2276012
1.22132
1.2161575
22.241343
21.896057
20.755224
18.091744
14.361916
10.756332
7.9787533
6.0322713
4.7489448
3.8560689
3.1448536
2.601498
2.2405283
1.9906946
1.8036275
1.6631928
1.5583909
1.4793888
1.4192471
1.3731578
1.3375037
1.309601
1.2875215
1.2698832
1.2556844
1.244182
1.234819
1.2271662
1.2208917
1.2157343
22.243612
21.899933
20.765656
18.111682
14.382502
10.771839
7.9873603
6.0361535
4.7498792
3.8555897
3.1438871
2.6003738
2.2394018
1.9895812
1.8025747
1.662251
1.5575574
1.4786494
1.4185825
1.3725529
1.3369438
1.3090752
1.2870218
1.2694037
1.2552204
1.2437306
1.234377
1.226732
1.2204642
1.2153116
22.245883
21.903801
20.776041
18.131604
14.403139
10.787408
7.9960069
6.0400584
4.7508261
3.8551176
3.1429247
2.5992517
2.2382771
1.9884695
1.8015244
1.6613106
1.5567267
1.4779111
1.4179197
1.3719496
1.3363852
1.3085508
1.2865233
1.2689252
1.2547573
1.2432802
1.2339361
1.226299
1.2200374
1.2148897
22.248158
21.90766
20.786383
18.151517
14.423826
10.803041
8.004694
6.0439876
4.7517857
3.8546525
3.1419661
2.5981318
2.2371543
1.9873598
1.8004773
1.6603722
1.5558977
1.477174
1.417259
1.3713476
1.3358279
1.3080272
1.2860255
1.2684477
1.2542951
1.2428306
1.2334963
1.2258671
1.2196111
1.2144683
22.250436
21.911511
20.796683
18.171416
14.44456
10.818736
8.0134218
6.0479402
4.7527581
3.8541947
3.1410115
2.5970141
2.2360328
1.9862518
1.7994309
1.6594358
1.5550699
1.4764395
1.4165995
1.3707466
1.3352718
1.3075049
1.2855287
1.267971
1.2538342
1.2423817
1.2330575
1.225436
1.2191857
1.214048
22.252719
21.915354
20.806942
18.191299
14.465348
10.834496
8.0221904
6.0519157
4.7537433
3.8537439
3.1400606
2.5958983
2.2349123
1.9851445
1.7983853
1.6585013
1.5542437
1.4757066
1.4159409
1.3701467
1.3347166
1.3069834
1.2850332
1.267495
1.2533742
1.2419335
1.2326193
1.2250054
1.2187615
1.2136289
22.255007
21.919189
20.817154
18.211173
14.486182
10.850318
8.0310006
6.0559157
4.7547411
3.8533004
3.1391135
2.5947847
2.2337934
1.9840392
1.7973437
1.6575686
1.5534201
1.4749747
1.4152837
1.3695485
1.3341628
1.3064632
1.2845387
1.2670203
1.2529151
1.2414865
1.2321818
1.2245756
1.2183384
1.2132106
22.257298
21.923016
20.82732
18.231026
14.507068
10.866205
8.039852
6.0599408
4.7557519
3.8528641
3.1381702
2.5936731
2.2326762
1.9829357
1.7963033
1.6566373
1.5525979
1.4742439
1.4146285
1.3689516
1.3336098
1.305944
1.2840451
1.2665465
1.2524565
1.2410404
1.231745
1.2241464
1.2179158
1.2127928
22.259592
21.926836
20.83744
18.250869
14.528003
10.882157
8.048746
6.0639894
4.7567757
3.8524351
3.1372309
2.5925637
2.2315603
1.9818333
1.7952633
1.6557084
1.5517766
1.4735155
1.4139747
1.3683558
1.3330584
1.3054257
1.2835524
1.2660738
1.2519987
1.2405953
1.2313093
1.2237186
1.2174938
1.2123756
22.261888
21.930649
20.847518
18.270691
14.548987
10.898172
8.0576816
6.0680628
4.7578125
3.8520135
3.1362955
2.5914562
2.2304452
1.9807318
1.7942256
1.6547808
1.5509573
1.4727887
1.4133217
1.3677609
1.3325078
1.3049086
1.2830604
1.2656017
1.2515421
1.2401508
1.2308747
1.2232916
1.2170724
1.211959
22.264188
21.934455
20.857556
18.290496
14.570023
10.914253
8.0666606
6.0721623
4.7588628
3.8515993
3.1353641
2.5903506
2.2293315
1.9796322
1.7931908
1.653855
1.5501402
1.4720627
1.4126698
1.3671672
1.3319581
1.3043922
1.2825697
1.2651304
1.2510865
1.2397068
1.2304408
1.2228653
1.2166518
1.2115435
22.266491
21.938255
20.867551
18.310287
14.591105
10.930399
8.0756819
6.0762863
4.7599265
3.8511926
3.1344365
2.589247
2.2282195
1.9785341
1.7921563
1.6529305
1.5493242
1.4713376
1.4120194
1.3665748
1.3314095
1.3038768
1.2820798
1.2646598
1.2506316
1.2392636
1.2300073
1.2224394
1.2162323
1.2111289
22.268797
21.94205
20.877499
18.330053
14.61224
10.946609
8.0847475
6.0804356
4.7610039
3.8507935
3.1335128
2.5881455
2.2271085
1.9774365
1.7911226
1.6520083
1.548509
1.4706149
1.411371
1.3659838
1.3308619
1.3033626
1.2815909
1.2641905
1.2501773
1.2388215
1.2295744
1.222014
1.2158137
1.2107151
22.271106
21.94584
20.887401
18.349806
14.633421
10.962886
8.0938561
6.0846119
4.7620952
3.850402
3.1325929
2.5870459
2.2259983
1.9763404
1.7900922
1.6510872
1.5476959
1.4698937
1.4107231
1.3653935
1.3303157
1.3028491
1.2811026
1.2637219
1.2497236
1.2383804
1.2291422
1.2215896
1.2153955
1.2103016
22.273418
21.949623
20.897259
18.369534
14.654654
10.979229
8.1030097
6.0888139
4.7632007
3.8500182
3.131677
2.5859482
2.2248894
1.975246
1.789063
1.6501674
1.5468848
1.4691732
1.4100761
1.3648041
1.3297701
1.3023366
1.280615
1.2632542
1.2492708
1.2379399
1.2287113
1.2211663
1.2149778
1.2098887
22.275733
21.953402
20.907077
18.389243
14.675935
10.995636
8.1122071
6.0930418
4.7643203
3.849642
3.1307652
2.5848524
2.223782
1.9741525
1.788034
1.6492495
1.5460744
1.4684534
1.4094303
1.3642159
1.3292253
1.3018247
1.2801284
1.2627868
1.248819
1.2374997
1.2282811
1.2207436
1.2145605
1.2094762
22.278051
21.957176
20.916855
18.408931
14.697265
11.012112
8.1214504
6.0972974
4.765454
3.8492737
3.1298575
2.5837586
2.2226755
1.9730595
1.7870069
1.6483329
1.5452649
1.4677358
1.4087865
1.3636291
1.3286816
1.3013138
1.2796428
1.2623202
1.2483681
1.2370602
1.2278514
1.2203214
1.2141442
1.2090649
22.280372
21.960943
20.926589
18.428593
14.718646
11.028652
8.1307384
6.1015802
4.7666018
3.8489131
3.1289539
2.5826667
2.2215698
1.9719681
1.7859823
1.6474179
1.5444575
1.4670198
1.4081435
1.3630432
1.3281387
1.3008039
1.2791579
1.2618546
1.2479176
1.2366215
1.2274221
1.2198996
1.213729
1.2086545
22.282697
21.964704
20.936276
18.448239
14.740074
11.045259
8.1400729
6.1058894
4.7677639
3.8485605
3.1280543
2.5815768
2.2204653
1.9708782
1.7849582
1.6465036
1.5436519
1.4663043
1.407501
1.3624578
1.3275971
1.3002947
1.2786737
1.2613899
1.2474676
1.2361838
1.2269933
1.2194783
1.2133143
1.2082445
22.285024
21.968457
20.945919
18.467854
14.761552
11.061934
8.1494531
6.1102272
4.7689406
3.8482157
3.1271587
2.5804886
2.219362
1.9697887
1.7839343
1.6455917
1.5428467
1.4655893
1.4068594
1.3618734
1.3270558
1.2997863
1.2781899
1.2609258
1.2470181
1.2357467
1.2265653
1.2190579
1.2128999
1.2078347
22.287354
21.972205
20.955519
18.487448
14.783078
11.078674
8.1588806
6.1145934
4.770132
3.847879
3.1262672
2.5794024
2.2182597
1.9686999
1.7829134
1.6446804
1.5420422
1.4648762
1.4062196
1.36129
1.3265156
1.2992785
1.277707
1.2604622
1.2465697
1.2353101
1.2261384
1.2186385
1.2124858
1.2074254
22.289688
21.975945
20.96508
18.507018
14.804654
11.095483
8.1683547
6.1189869
4.7713384
3.8475503
3.1253798
2.5783181
2.217158
1.9676127
1.7818936
1.6437707
1.5412401
1.4641649
1.4055809
1.360708
1.325976
1.2987713
1.277225
1.259999
1.246122
1.2348738
1.225712
1.2182195
1.2120722
1.2070165
22.292024
21.979679
20.974602
18.526557
14.826278
11.112359
8.1778768
6.1234097
4.7725599
3.8472296
3.1244968
2.5772358
2.2160573
1.9665264
1.7808738
1.6428619
1.5404393
1.463454
1.4049427
1.3601265
1.3254374
1.2982653
1.2767437
1.2595367
1.245675
1.234438
1.2252859
1.2178009
1.2116595
1.2066088
22.294364
21.983406
20.98408
18.546076
14.847949
11.129301
8.1874465
6.127862
4.7737968
3.8469171
3.123618
2.5761552
2.2149577
1.9654403
1.7798554
1.6419547
1.5396387
1.4627434
1.4043049
1.3595454
1.3248996
1.2977597
1.276263
1.2590751
1.2452281
1.2340031
1.22486
1.2173824
1.2112477
1.2062017
22.29671
21.987128
20.993512
18.565561
14.869671
11.146312
8.1970649
6.1323425
4.7750492
3.8466129
3.1227435
2.5750764
2.213859
1.9643553
1.7788393
1.6410485
1.5388389
1.4620343
1.4036686
1.3589655
1.3243623
1.297255
1.2757827
1.2586143
1.2447817
1.2335691
1.2244347
1.2169645
1.2108363
1.205795
22.299059
21.990843
21.002901
18.585021
14.891439
11.163391
8.206732
6.1368531
4.7763167
3.8463168
3.1218732
2.5739995
2.2127608
1.9632715
1.7778233
1.6401431
1.5380413
1.4613272
1.4030337
1.3583864
1.3238258
1.2967506
1.2753028
1.2581539
1.2443359
1.2331355
1.2240102
1.2165475
1.2104251
1.2053884
22.301411
21.994553
21.012247
18.604453
14.913256
11.180536
8.2164483
6.1413943
4.7775995
3.8460291
3.1210071
2.5729244
2.2116633
1.9621881
1.7768076
1.6392391
1.5372447
1.4606203
1.4023992
1.3578083
1.3232899
1.2962468
1.274824
1.2576937
1.243891
1.2327021
1.2235866
1.2161313
1.2100141
1.2049821
22.303765
21.998258
21.021555
18.623851
14.93512
11.197751
8.2262145
6.1459645
4.7788978
3.8457497
3.1201452
2.5718511
2.2105668
1.9611048
1.775794
1.6383359
1.5364482
1.4599136
1.401765
1.3572305
1.3227547
1.295744
1.2743456
1.2572339
1.2434468
1.2322689
1.2231632
1.2157153
1.2096034
1.2045761
22.306123
22.001959
21.030826
18.643225