/*--------------------------------*- C++ -*----------------------------------*\
| =========                 |                                                 |
| \\      /  F ield         | OpenFOAM: The Open Source CFD Toolbox           |
|  \\    /   O peration     | Version:  v2012                                 |
|   \\  /    A nd           | Website:  www.openfoam.com                      |
|    \\/     M anipulation  |                                                 |
\*---------------------------------------------------------------------------*/
FoamFile
{
    version     2.0;
    format      ascii;
    class       volScalarField;
    location    "850";
    object      T;
}
// * * * * * * * * * * * * * * * * * * * * * * * * * * * * * * * * * * * * * //

dimensions      [0 0 0 1 0 0 0];


internalField   nonuniform List<scalar> 
24000
(
42.825795
43.139696
44.360199
47.725922
54.678061
66.535834
83.488449
104.85958
127.93002
153.54379
186.02294
223.12873
257.85326
289.00352
318.33455
345.64864
369.86242
390.74166
408.42733
423.15779
435.28915
445.24797
453.42938
460.16345
465.71688
470.30401
474.0977
477.23807
479.83931
481.99485
42.824519
43.13671
44.349439
47.699855
54.63294
66.473995
83.418679
104.79831
127.90326
153.55858
186.06793
223.20595
257.96615
289.15949
318.53032
345.86985
370.09792
390.98284
408.66781
423.39417
435.5205
445.47456
453.65186
460.38254
465.93324
470.51822
474.31024
477.44933
480.0496
482.20443
42.823223
43.133673
44.338503
47.673772
54.587421
66.413428
83.353263
104.74558
127.88942
153.58899
186.13013
223.30519
258.10209
289.33707
318.74714
346.1102
370.34956
391.23811
408.92118
423.64227
435.76258
445.71114
453.88388
460.61093
466.15881
470.74161
474.53195
477.66977
480.26908
482.42318
42.821922
43.130621
44.327605
47.647781
54.542071
66.353738
83.28983
104.69574
127.87744
153.62039
186.19463
223.40442
258.23435
289.50663
318.94882
346.32713
370.57044
391.45712
409.13531
423.85067
435.96594
445.91047
454.08006
460.80463
466.35055
470.93178
474.72086
477.85768
480.4562
482.6097
42.82062
43.127566
44.316753
47.621933
54.496791
66.294562
83.2275
104.64761
127.86732
153.65402
186.2628
223.50827
258.3711
289.68036
319.155
346.54963
370.7985
391.68501
409.35965
424.06994
436.18028
446.12063
454.28682
461.00866
466.5524
471.13191
474.91962
478.05537
480.65305
482.80591
42.819316
43.124514
44.305957
47.596174
54.451577
66.235667
83.165762
104.60043
127.85818
153.68879
186.33308
223.6147
258.51038
289.8564
319.36321
346.77387
371.02794
391.91394
409.58474
424.28978
436.39514
446.33132
454.49415
461.21332
466.75492
471.33273
475.1191
478.25378
480.85064
483.00285
42.818013
43.121468
44.295216
47.570539
54.406414
66.176945
83.104351
104.55379
127.84964
153.72433
186.40483
223.72312
258.65173
290.03449
319.57346
347.00012
371.25935
392.14477
409.81165
424.51138
436.61171
446.54367
454.7031
461.41956
466.95902
471.53512
475.32014
478.45375
481.04977
483.20134
42.816709
43.11843
44.28453
47.54499
54.361293
66.118306
83.043103
104.50745
127.84143
153.76032
186.47752
223.83283
258.79444
290.21391
319.78496
347.22756
371.49185
392.37657
410.03944
424.73379
436.82905
446.75677
454.9128
461.62656
467.16386
471.73825
475.52192
478.65446
481.24965
483.40057
42.815405
43.1154
44.273902
47.519541
54.316226
66.059718
82.981928
104.46127
127.83338
153.79653
186.55079
223.94338
258.93804
290.39419
319.99727
347.45572
371.72499
392.60893
410.26773
424.95666
437.04682
446.97029
455.1229
461.83394
467.36909
471.94178
475.72409
478.85557
481.44992
483.60019
42.814102
43.11238
44.263332
47.494185
54.271187
66.001136
82.920755
104.41514
127.82538
153.83282
186.62439
224.05446
259.08222
290.57501
320.21004
347.68426
371.95842
392.84152
410.4962
425.17969
437.26474
447.18395
455.33315
462.04148
467.57449
472.14546
475.92642
479.05683
481.65035
483.79997
42.812799
43.10937
44.252821
47.468893
54.226202
65.942552
82.859539
104.36898
127.81735
153.86912
186.69817
224.16584
259.22672
290.75611
320.42302
347.91294
372.19193
393.07413
410.72465
425.40269
437.48262
447.39757
455.54337
462.24899
467.77984
472.34911
476.12872
479.25807
481.85075
483.99972
42.811496
43.106373
44.242369
47.443683
54.181244
65.883936
82.798257
104.32276
127.80923
153.90534
186.772
224.27739
259.3714
290.93735
320.63607
348.14163
372.42539
393.30664
410.95297
425.62554
437.70036
447.61105
455.75344
462.45636
467.98506
472.55263
476.33089
479.45918
482.05102
484.19935
42.810195
43.103391
44.231976
47.418519
54.136338
65.82529
82.736878
104.27643
127.80099
153.94144
186.84582
224.38901
259.51617
291.11865
320.8491
348.3702
372.65867
393.53893
411.18106
425.84815
437.91785
447.82429
455.96327
462.66349
468.19006
472.75592
476.53284
479.66006
482.25107
484.39876
42.808893
43.100422
44.221647
47.393438
54.091462
65.766592
82.675391
104.22998
127.79261
153.97738
186.91956
224.50061
259.66094
291.29989
321.06201
348.59859
372.89171
393.77095
411.40885
426.07046
438.13505
448.03725
456.17284
462.87036
468.39479
472.95896
476.73453
479.86069
482.45088
484.59792
42.807592
43.097471
44.211375
47.368402
54.046635
65.707847
82.61378
104.1834
127.78406
154.01314
186.99318
224.61215
259.80565
291.48104
321.27474
348.82674
373.12447
394.00264
411.63629
426.29242
438.35191
448.24987
456.38207
463.0769
468.5992
473.16168
476.93591
480.06101
482.65037
484.79677
42.806291
43.09453
44.20116
47.343441
54.001847
65.649036
82.552031
104.13665
127.77532
154.0487
187.06665
224.7236
259.95027
291.66207
321.48729
349.05461
373.35689
394.23396
411.86335
426.514
438.5684
448.46213
456.59094
463.2831
468.80327
473.36406
477.13696
480.261
482.84953
484.99529
42.804989
43.0916
44.190999
47.318529
53.957096
65.590166
82.490146
104.08974
127.76639
154.08406
187.13996
224.83492
260.09479
291.84296
321.69962
349.2822
373.58897
394.46491
412.09002
426.73519
438.7845
448.67401
456.79945
463.48892
469.00697
473.56608
477.33764
480.46063
483.04834
485.19346
42.803687
43.088681
44.180904
47.293687
53.9124
65.531224
82.428107
104.04266
127.75727
154.11919
187.21309
224.9461
260.23918
292.02366
321.91168
349.50945
373.82068
394.69545
412.31627
426.95597
439.00021
448.88551
457.00758
463.69439
469.21031
473.76774
477.53797
480.65992
483.2468
485.39128
42.802384
43.085771
44.170864
47.268902
53.867732
65.472211
82.365913
103.9954
127.74793
154.15411
187.28602
225.0571
260.38341
292.20419
322.12348
349.73636
374.05199
394.92556
412.54208
427.17632
439.21548
449.09659
457.2153
463.89944
469.41326
473.96901
477.73791
480.85881
483.44487
485.58872
42.801082
43.08287
44.160881
47.244171
53.823125
65.413123
82.303561
103.94795
127.73839
154.18879
187.35874
225.16793
260.52749
292.38453
322.33503
349.96293
374.2829
395.15524
412.76745
427.39623
439.43034
449.30725
457.42262
464.1041
469.61581
474.1699
477.93748
481.05733
483.64257
485.78579
42.799781
43.079979
44.150948
47.219514
53.778546
65.353955
82.24104
103.90031
127.72863
154.22323
187.43125
225.27856
260.67142
292.56468
322.54628
350.18914
374.51341
395.3845
412.99239
427.61571
439.64476
449.5175
457.62952
464.30835
469.81796
474.37038
478.13664
481.25545
483.83987
485.98245
42.79848
43.077097
44.141083
47.194902
53.734027
65.29471
82.178358
103.85247
127.71865
154.25743
187.50354
225.389
260.81518
292.74464
322.75726
350.41497
374.74351
395.61331
413.21687
427.83474
439.85876
449.72733
457.83602
464.51221
470.01972
474.57048
478.33542
481.45319
484.0368
486.17875
42.797178
43.074224
44.13127
47.170364
53.689545
65.235378
82.115501
103.80445
127.70845
154.29138
187.57563
225.49923
260.95877
292.92442
322.96797
350.64045
374.97317
395.84166
413.44088
428.05331
440.07232
449.93672
458.04209
464.71565
470.22107
474.77017
478.53379
481.65053
484.23333
486.37465
42.795876
43.07136
44.121517
47.145874
53.645115
65.175968
82.052469
103.75622
127.69803
154.3251
187.64748
225.60926
261.10221
293.10402
323.1784
350.86557
375.20244
396.06959
413.66446
428.27145
440.28544
450.1457
458.24775
464.91868
470.42202
474.96947
478.73178
481.84749
484.42948
486.57017
42.794573
43.068506
44.111807
47.121453
53.600736
65.116463
81.989265
103.70778
127.68739
154.35858
187.71912
225.71906
261.24551
293.28346
323.38855
351.09032
375.4313
396.29708
413.88759
428.48915
440.49813
450.35425
458.453
465.1213
470.62256
475.16835
478.92936
482.04403
484.62522
486.76529
42.793271
43.065667
44.102152
47.097085
53.556394
65.05688
81.925877
103.65914
127.67652
154.39182
187.79053
225.82864
261.38865
293.46275
323.59842
351.3147
375.65973
396.52411
414.11027
428.7064
440.7104
450.5624
458.65784
465.32353
470.82272
475.36687
479.12658
482.24022
484.8206
486.96004
42.791968
43.06284
44.092548
47.072783
53.512122
64.997197
81.862315
103.6103
127.66543
154.42482
187.86172
225.93796
261.53163
293.64194
323.808
351.53871
375.88775
396.75071
414.33249
428.92321
440.92223
450.77011
458.86227
465.52535
471.02247
475.56498
479.32338
482.436
485.01558
487.1544
42.790665
43.060028
44.082999
47.048542
53.467881
64.937431
81.798567
103.56125
127.65412
154.45758
187.9327
226.04707
261.67446
293.82097
324.0173
351.76237
376.11537
396.97688
414.55428
429.13959
441.13364
450.97741
459.06629
465.72677
471.22182
475.76269
479.51981
482.6314
485.21017
487.34837
42.789363
43.057229
44.073494
47.024355
53.423711
64.877561
81.734634
103.51198
127.64258
154.49011
188.00346
226.156
261.81714
293.9998
324.22634
351.98567
376.34258
397.20261
414.77562
429.35552
441.34461
451.18429
459.26989
465.92778
471.42077
475.96001
479.71583
482.8264
485.40438
487.54196
42.788059
43.054439
44.064033
47.000245
53.379579
64.817607
81.670518
103.4625
127.63081
154.5224
188.074
226.26475
261.95964
294.17843
324.43506
352.2086
376.56937
397.42791
414.99653
429.57103
441.55518
451.39077
459.47312
466.12841
471.61936
476.15697
479.9115
483.02105
485.59823
487.73519
42.786756
43.05166
44.054633
46.976184
53.335511
64.757545
81.606209
103.41281
127.61881
154.55444
188.14431
226.37331
262.10198
294.35685
324.6435
352.43117
376.79577
397.65277
415.21699
429.7861
441.76531
451.59683
459.67592
466.32864
471.81753
476.35352
480.10676
483.2153
485.79168
487.92803
42.785452
43.04889
44.045281
46.952194
53.291496
64.697394
81.541719
103.36291
127.60659
154.58623
188.21439
226.48168
262.24417
294.53509
324.85168
352.65339
377.02177
397.87722
415.43702
430.00075
441.97503
451.80249
459.87833
466.52847
472.01533
476.54969
480.30165
483.40918
485.98477
488.1205
42.784148
43.04613
44.035978
46.92826
53.247531
64.637132
81.477034
103.31278
127.59414
154.61779
188.28426
226.58989
262.38622
294.71316
325.05958
352.87527
377.24737
398.10124
415.65662
430.21497
442.18434
452.00774
460.08034
466.72792
472.21273
476.74548
480.49616
483.60268
486.17748
488.3126
42.782844
43.04338
44.026716
46.904393
53.203637
64.576779
81.41216
103.26244
127.58146
154.6491
188.35391
226.69791
262.52811
294.89103
325.2672
353.09679
377.47259
398.32485
415.87581
430.42879
442.39326
452.21262
460.28199
466.927
472.40979
476.94093
480.69033
483.79584
486.36985
488.50436
42.781539
43.040639
44.017508
46.880588
53.159782
64.516312
81.347096
103.21189
127.56855
154.68018
188.42333
226.80576
262.66986
295.06873
325.47456
353.31798
377.6974
398.54804
416.09456
430.64217
442.60175
452.41708
460.48323
467.12568
472.60644
477.13597
480.8841
483.98861
486.56182
488.69572
42.780233
43.037908
44.00835
46.856845
53.116011
64.455748
81.281836
103.16112
127.55542
154.71101
188.49252
226.91342
262.81148
295.24627
325.68168
353.53884
377.92186
398.77083
416.31291
430.85516
442.80986
452.62116
460.68409
467.324
472.80274
477.33067
481.07752
484.18103
486.75346
488.88675
42.778927
43.035186
43.999246
46.833172
53.07228
64.395072
81.216391
103.11012
127.54206
154.74161
188.56148
227.02092
262.95297
295.42365
325.88852
353.75937
378.14593
398.99321
416.53084
431.06774
443.01756
452.82484
460.88457
467.52194
472.99866
477.52498
481.27057
484.37307
486.94472
489.07741
42.77762
43.032474
43.990185
46.809558
53.028625
64.334287
81.150746
103.05891
127.52847
154.77197
188.63022
227.12826
263.09432
295.60086
326.09512
353.97956
378.36962
399.21519
416.74836
431.27992
443.22488
453.02816
461.08469
467.71952
473.19423
477.71896
481.46328
484.56479
487.13566
489.26774
42.776313
43.029771
43.981164
46.786018
52.985027
64.273396
81.084914
103.00748
127.51465
154.80209
188.69874
227.23542
263.23556
295.77792
326.3015
354.19944
378.59294
399.43677
416.96547
431.49169
443.43179
453.23108
461.28442
467.91671
473.38942
477.91255
481.65562
484.75612
487.32621
489.45769
42.775006
43.027081
43.972204
46.762538
52.94149
64.212387
81.018887
102.95583
127.50061
154.83197
188.76704
227.34243
263.37668
295.95485
326.50763
354.41902
378.81593
399.65798
417.18221
431.70308
443.63834
453.43364
461.4838
468.11357
473.58427
478.10582
481.84762
484.94713
487.51645
489.64732
42.773699
43.024399
43.96329
46.739128
52.89803
64.151268
80.952666
102.90396
127.48633
154.8616
188.83509
227.44926
263.5177
296.13162
326.71352
354.63828
379.03854
399.87879
417.39853
431.91407
443.8445
453.63581
461.68279
468.31004
473.77874
478.2987
482.03925
485.13777
487.70631
489.83658
42.772391
43.021732
43.954425
46.715783
52.854616
64.090026
80.886254
102.85186
127.47183
154.89099
188.90292
227.55595
263.6586
296.30826
326.91919
354.85722
379.26078
400.09921
417.61446
432.12468
444.05029
453.83763
461.88144
468.50618
473.97289
478.49127
482.23056
485.3281
487.89586
490.02553
42.771083
43.019074
43.945602
46.692504
52.811298
64.028672
80.819643
102.79954
127.45709
154.92014
188.97051
227.66247
263.7994
296.48477
327.12464
355.07587
379.48269
400.31926
417.83
432.3349
444.25569
454.03907
462.07972
468.70195
474.16667
478.68347
482.42152
485.51807
488.08506
490.21413
42.769774
43.016424
43.936823
46.669297
52.768026
63.967188
80.752848
102.747
127.44212
154.94904
189.03787
227.76884
263.94011
296.66116
327.32986
355.29423
379.70425
400.53895
418.04518
432.54476
444.46074
454.24017
462.27766
468.89739
474.36012
478.87535
482.61215
485.70771
488.27393
490.40241
42.768464
43.013782
43.9281
46.646153
52.724841
63.905589
80.685852
102.69423
127.42692
154.9777
189.105
227.87506
264.08073
296.83743
327.53487
355.51228
379.92545
400.75823
418.25994
432.75421
444.66539
454.44087
462.47522
469.09245
474.5532
479.06686
482.80241
485.89699
488.46244
490.59032
42.767153
43.011148
43.919427
46.623086
52.68172
63.843858
80.618668
102.64124
127.41148
155.00612
189.1719
227.98113
264.22125
297.01357
327.73967
355.73004
380.14632
400.97716
418.47434
432.96331
444.8697
454.64125
462.67246
469.2872
474.74598
479.25807
482.99237
486.08598
488.65066
490.77795
42.765841
43.008523
43.910798
46.600085
52.638671
63.782003
80.55129
102.58801
127.39581
155.03429
189.23855
228.08704
264.3617
297.18961
327.94426
355.94752
380.36686
401.19573
418.68837
433.17203
445.07364
454.84127
462.86934
469.48159
474.9384
479.44892
483.18199
486.27462
488.83853
490.96523
42.764528
43.005905
43.90221
46.577154
52.595707
63.720017
80.48372
102.53457
127.37989
155.06222
189.30496
228.19282
264.50208
297.36554
328.14865
356.16471
380.58706
401.41394
418.90203
433.38039
445.27723
455.04093
463.06588
469.67566
475.13049
479.63945
483.37129
486.46294
489.02609
491.1522
42.763218
43.003296
43.893669
46.554296
52.552799
63.657896
80.415963
102.48088
127.36373
155.08991
189.37113
228.29846
264.64238
297.54137
328.35283
356.38161
380.80691
401.63177
419.1153
433.58837
445.48044
455.24023
463.26206
469.86936
475.32223
479.82964
483.56024
486.65091
489.2133
491.33882
42.761906
43.000694
43.88518
46.531502
52.509998
63.595642
80.348013
102.42697
127.34732
155.11736
189.43707
228.40395
264.78261
297.71709
328.55681
356.59824
381.02646
401.84927
419.32823
433.79602
445.68334
455.43923
463.45795
470.06278
475.51369
480.01954
483.74891
486.83862
489.40025
491.52517
42.760593
42.9981
43.876743
46.508787
52.467251
63.533246
80.279883
102.37282
127.33067
155.14456
189.50277
228.50931
264.92279
297.89273
328.7606
356.8146
381.24567
402.0664
419.54079
434.00329
445.88586
455.63786
463.65347
470.25584
475.7048
480.2091
483.93724
487.02597
489.58684
491.71118
42.759279
42.995513
43.868347
46.486132
52.424605
63.470713
80.211559
102.31844
127.31377
155.17151
189.56824
228.61454
265.06292
298.06827
328.9642
357.03067
381.46455
402.28318
419.75298
434.2102
446.08804
455.83616
463.84866
470.44857
475.89558
480.39834
484.12525
487.21302
489.77314
491.89689
42.757964
42.992936
43.859991
46.463561
52.382032
63.408032
80.14306
102.26383
127.29662
155.19821
189.63346
228.71965
265.20299
298.2437
329.16759
357.24646
381.6831
402.4996
419.96481
434.41675
446.28986
456.0341
464.04351
470.64097
476.08603
480.58724
484.31293
487.39974
489.9591
492.08226
42.756648
42.990368
43.851684
46.441061
52.339544
63.345211
80.074373
102.20897
127.27921
155.22467
189.69845
228.82462
265.34299
298.41904
329.37079
357.46199
381.90136
402.71569
420.17631
434.62298
446.49138
456.23175
464.23807
470.83308
476.27621
480.77587
484.50034
487.58619
490.14479
492.26738
42.755331
42.987808
43.843427
46.41863
52.297151
63.28224
80.00551
102.15388
127.26154
155.25087
189.76322
228.92947
265.48296
298.5943
329.57381
357.67725
382.11928
402.93143
420.38743
434.82884
446.69252
456.42903
464.43228
471.02484
476.46603
480.96416
484.68741
487.77229
490.33014
492.45215
42.754012
42.985259
43.835221
46.396278
52.254826
63.219118
79.936468
102.09854
127.2436
155.27682
189.82777
229.0342
265.62289
298.76946
329.77664
357.89224
382.33689
403.14683
420.59821
435.03436
446.89334
456.62599
464.62617
471.2163
476.65555
481.15214
484.87418
487.95811
490.51521
492.63663
42.752693
42.982719
43.827055
46.37399
52.212621
63.155842
79.867251
102.04296
127.22539
155.30252
189.89212
229.13883
265.76275
298.94451
329.97926
358.10697
382.55419
403.36189
420.80866
435.23954
447.09383
456.82263
464.81974
471.40743
476.84475
481.33981
485.06064
488.14361
490.69996
492.8208
42.751372
42.980186
43.818928
46.351786
52.170482
63.092409
79.797864
101.98713
127.2069
155.32797
189.95628
229.24334
265.90255
299.11948
330.18171
358.32144
382.7712
403.57664
421.01877
435.44441
447.294
457.01897
465.01302
471.59828
477.03368
481.52721
485.24683
488.32884
490.88445
493.00471
42.75005
42.977661
43.810847
46.329643
52.128458
63.028823
79.728305
101.93105
127.18812
155.35315
190.02024
229.34775
266.04228
299.29434
330.38397
358.53564
382.98788
403.79103
421.22851
435.64891
447.49382
457.21496
465.20595
471.78879
477.22226
481.71427
485.43268
488.51374
491.0686
493.18829
42.748727
42.975142
43.802818
46.307585
52.086518
62.965081
79.658587
101.87471
127.16906
155.37808
190.08402
229.45204
266.18194
299.4691
330.58604
358.74959
383.20428
404.00512
421.43795
435.85309
447.69334
457.41065
465.39859
471.97902
477.41057
481.90106
485.61826
488.69837
491.25249
493.3716
42.747402
42.97263
43.794839
46.2856
52.044678
62.901189
79.588697
101.81811
127.14971
155.40274
190.14761
229.55622
266.32152
299.64376
330.78793
358.96329
383.42038
404.21887
421.64705
436.05695
447.89252
457.60602
465.59091
472.16893
477.59856
482.08753
485.80353
488.88269
491.43606
493.5546
42.746076
42.970125
43.786898
46.263683
52.002919
62.837192
79.518654
101.76126
127.13006
155.42713
190.21101
229.6603
266.46103
299.81832
330.98964
359.17673
383.63617
404.43231
421.85581
436.26048
448.09141
457.80109
465.78295
472.35856
477.78628
482.27374
485.98853
489.06674
491.61938
493.73734
42.744749
42.967626
43.778996
46.24185
51.961189
62.773144
79.448442
101.70414
127.1101
155.45126
190.27422
229.76426
266.60047
299.99279
331.19116
359.38991
383.85167
404.64542
422.06425
436.46369
448.28996
457.99584
465.97467
472.54787
477.97369
482.45963
486.17323
489.25049
491.80239
493.91978
42.743421
42.965134
43.771136
46.220077
51.919533
62.709049
79.378077
101.64676
127.08986
155.47512
190.33726
229.86812
266.73986
300.16716
331.39252
359.60288
384.06691
404.85824
422.27239
436.66661
448.48823
458.19032
466.16612
472.73692
478.16084
482.64526
486.35766
489.43399
491.98515
494.10197
42.742091
42.962648
43.763329
46.198395
51.8779
62.644905
79.307545
101.58911
127.06931
155.49871
190.4001
229.97187
266.87917
300.34146
331.59371
359.81559
384.28186
405.07075
422.48021
436.8692
448.68619
458.38448
466.35727
472.92567
478.34768
482.8306
486.54181
489.61719
492.16761
494.28386
42.74076
42.960169
43.755571
46.176774
51.836338
62.580718
79.236857
101.5312
127.04846
155.52202
190.46276
230.07554
267.01844
300.51568
331.79475
360.02808
384.49653
405.28297
422.68774
437.0715
448.88387
458.57838
466.54815
473.11417
478.53428
483.0157
486.72571
489.80015
492.34984
494.46552
42.739428
42.957697
43.747851
46.155237
51.794813
62.51648
79.166004
101.47303
127.02732
155.54507
190.52523
230.1791
267.15765
300.68982
331.99563
360.24036
384.71095
405.4949
422.89496
437.27351
449.08126
458.77199
466.73875
473.30237
478.72059
483.20051
486.90933
489.98283
492.53178
494.6469
42.738097
42.955233
43.740169
46.133779
51.753339
62.452195
79.094992
101.41458
127.00587
155.56784
190.58752
230.28257
267.29683
300.86391
332.19637
360.45243
384.92513
405.70657
423.10191
437.47525
449.27838
458.96534
466.92909
473.49033
478.90666
483.38507
487.09271
490.16527
492.71349
494.82804
42.736764
42.952777
43.732525
46.112387
51.711924
62.387863
79.023816
101.35586
126.98411
155.59034
190.64963
230.38596
267.43597
301.03795
332.39698
360.66429
385.13904
405.91794
423.30856
437.67668
449.47519
459.15839
467.11914
473.678
479.09244
483.56935
487.2758
490.34743
492.89492
495.0089
42.735429
42.950327
43.724934
46.091087
51.670544
62.323485
78.952477
101.29688
126.96205
155.61257
190.71157
230.48926
267.57507
301.21193
332.59746
360.87595
385.35271
406.12906
423.51495
437.87786
449.67177
459.35121
467.30896
473.86544
479.278
483.75341
487.45867
490.52937
493.07613
495.18955
42.734094
42.947886
43.717391
46.069845
51.629237
62.259067
78.880975
101.23761
126.93967
155.63452
190.77332
230.59248
267.71414
301.38586
332.79782
361.08744
385.56617
406.33993
423.72107
438.07877
449.86808
459.54376
467.49851
474.05262
479.46329
483.93721
487.64129
490.71106
493.25708
495.36994
42.732757
42.945454
43.709888
46.048701
51.58796
62.194598
78.809306
101.17807
126.91699
155.65619
190.83487
230.69561
267.85319
301.55976
332.99807
361.29875
385.77941
406.55056
423.92694
438.27943
450.06414
459.73606
467.68783
474.23956
479.64835
484.12078
487.82368
490.89251
493.43781
495.55011
42.731419
42.943028
43.702422
46.027624
51.546755
62.130086
78.737474
101.11825
126.89398
155.67758
190.89624
230.79866
267.99221
301.73361
333.1982
361.50986
385.99241
406.76091
424.13253
438.4798
450.25992
459.92809
467.87687
474.42624
479.83314
484.30408
488.0058
491.0737
493.61827
495.73001
42.73008
42.940608
43.694993
46.006623
51.505593
62.065532
78.66547
101.05814
126.87066
155.69868
190.95742
230.90162
268.13119
301.90743
333.39822
361.72081
386.20521
406.97105
424.3379
438.67997
450.45549
460.11993
468.06572
474.61272
480.01775
484.4872
488.18774
491.25471
493.79856
495.90973
42.728739
42.938194
43.687608
45.985714
51.464482
62.000932
78.593303
100.99775
126.847
155.7195
191.01841
231.0045
268.27017
302.08122
333.59814
361.93161
386.41781
407.18096
424.54301
438.87987
450.65081
460.31151
468.25432
474.79896
480.20211
484.67007
488.36943
491.43548
493.9786
496.08921
42.727398
42.935786
43.680274
45.964864
51.423436
61.936294
78.520961
100.93707
126.82301
155.74002
191.07921
231.10731
268.40913
302.255
333.79798
362.14224
386.63021
407.39064
424.7479
439.07955
450.84591
460.50286
468.4427
474.98497
480.38626
484.85273
488.55091
491.61603
494.15843
496.26849
42.726058
42.933384
43.672982
45.944116
51.382427
61.871608
78.448455
100.8761
126.7987
155.76025
191.13981
231.21002
268.54806
302.42874
333.99771
362.35271
386.8424
407.60009
424.95254
439.27898
451.04076
460.69398
468.63084
475.17075
480.57016
485.03515
488.73216
491.79635
494.33803
496.44753
42.724717
42.930987
43.665727
45.92343
51.341492
61.806882
78.37577
100.81483
126.77405
155.78018
191.20021
231.31265
268.68697
302.60245
334.19736
362.56305
387.05443
407.80936
425.15699
439.47823
451.23543
460.88492
468.81881
475.35637
480.75391
485.21741
488.91325
491.97652
494.51747
496.62641
42.723374
42.928596
43.658508
45.902832
51.300594
61.742122
78.302921
100.75326
126.74906
155.79982
191.26041
231.41519
268.82588
302.77617
334.39694
362.77325
387.26627
408.01841
425.36121
439.67723
451.42986
461.07563
469.00655
475.54175
480.93742
485.39944
489.09411
492.15645
494.69669
496.80507
42.72203
42.926211
43.651325
45.882318
51.259766
61.677313
78.229891
100.6914
126.72374
155.81915
191.3204
231.51766
268.96478
302.94988
334.59644
362.98331
387.47794
408.22726
425.56522
439.87604
451.6241
461.26614
469.1941
475.72694
481.12075
485.58129
489.27478
492.33621
494.87572
496.98355
42.720685
42.923831
43.644192
45.86187
51.218989
61.612471
78.156695
100.62923
126.69808
155.83817
191.38019
231.62004
269.10367
303.12357
334.79587
363.19324
387.68944
408.43592
425.76903
440.07464
451.81813
461.45645
469.38144
475.91193
481.30387
485.76293
489.45525
492.51576
495.05455
497.16183
42.719339
42.921457
43.637106
45.841525
51.178264
61.547588
78.083315
100.56675
126.67207
155.85688
191.43977
231.72234
269.24255
303.29727
334.99525
363.40308
387.90081
408.64444
425.97269
440.27309
452.01201
461.64661
469.56864
476.09679
481.48686
485.94445
489.6356
492.69519
495.23326
497.33999
42.717992
42.91909
43.630057
45.821239
51.137608
61.482664
78.009766
100.50397
126.64571
155.87527
191.49915
231.82457
269.38144
303.47099
335.19458
363.6128
388.11202
408.85276
426.17613
440.47131
452.20568
461.83656
469.75564
476.28143
481.66964
486.12575
489.81573
492.8744
495.41176
497.51793
42.716643
42.916731
43.623043
45.801052
51.096995
61.417712
77.936031
100.44087
126.619
155.89335
191.55832
231.92671
269.52034
303.64472
335.39386
363.82241
388.32309
409.06091
426.3794
440.66937
452.39918
462.02635
469.94247
476.46592
481.85227
486.3069
489.99572
493.05347
495.59011
497.69573
42.715293
42.914377
43.616065
45.780942
51.056455
61.352714
77.862124
100.37746
126.59193
155.91111
191.61726
232.02878
269.65924
303.81845
335.59309
364.03193
388.53402
409.26891
426.58251
440.86726
452.59251
462.21597
470.12913
476.65023
482.03472
486.48787
490.17552
493.23235
495.76828
497.87335
42.713942
42.912029
43.609124
45.760903
51.015961
61.287685
77.78803
100.31373
126.56449
155.92855
191.67599
232.13076
269.79814
303.99222
335.7923
364.24138
388.74486
409.47679
426.78548
441.06502
452.78571
462.40547
470.31567
476.83443
482.21706
486.66874
490.35522
493.41113
495.94635
498.05086
42.71259
42.909691
43.602233
45.74097
50.975534
61.222628
77.713761
100.24968
126.5367
155.94567
191.73449
232.23266
269.93706
304.16602
335.99149
364.45073
388.95556
409.6845
426.98827
441.26259
452.97872
462.59477
470.50202
477.01844
482.39921
486.84942
490.53474
493.58973
496.12423
498.2282
42.711237
42.907359
43.595386
45.721095
50.935169
61.157527
77.639303
100.1853
126.50854
155.96245
191.79276
232.33448
270.076
304.33985
336.19064
364.66001
389.16615
409.89208
427.19092
441.46003
453.17161
462.78395
470.68825
477.20233
482.58124
487.02998
490.71413
493.76821
496.302
498.40541
42.709882
42.905032
43.588573
45.701324
50.894856
61.092402
77.564666
100.12059
126.48001
155.97891
191.85081
232.43621
270.21494
304.5137
336.38978
364.86923
389.37664
410.09954
427.39344
441.65733
453.36435
462.97299
470.87434
477.38607
482.76313
487.21039
490.89338
493.94655
496.47961
498.58248
42.708527
42.90271
43.581794
45.681627
50.854614
61.027245
77.489837
100.05555
126.4511
155.99502
191.90862
232.53786
270.35389
304.68761
336.58893
365.0784
389.58705
410.3069
427.59585
441.85452
453.55699
463.16193
471.06033
477.56972
482.94493
487.39072
491.07255
494.1248
496.65715
498.75947
42.70717
42.900394
43.575049
45.662005
50.814421
60.962052
77.414828
99.990176
126.42183
156.0108
191.9662
232.63942
270.49287
304.86156
336.78806
365.28751
389.79736
410.51413
427.79812
442.05155
453.74948
463.35071
471.24616
477.75322
483.12657
487.57089
491.25156
494.30289
496.83454
498.93631
42.705813
42.898082
43.568342
45.642489
50.774303
60.89684
77.339624
99.924464
126.39217
156.02623
192.02352
232.7409
270.63187
305.03555
336.9872
365.49658
390.0076
410.72127
428.00028
442.24849
453.94187
463.53941
471.43191
477.93663
483.30813
487.75098
491.43048
494.4809
497.01183
499.11306
42.704454
42.895776
43.561685
45.623033
50.734241
60.831593
77.264237
99.858413
126.36213
156.04132
192.0806
232.84228
270.7709
305.20961
337.18636
365.70562
390.21777
410.92831
428.20234
442.44532
454.13415
463.72798
471.61754
478.11992
483.48956
487.93094
491.60928
494.65879
497.18901
499.2897
42.703097
42.893475
43.555067
45.603683
50.694244
60.766317
77.188653
99.792011
126.33171
156.05606
192.13743
232.94358
270.90995
305.38375
337.38555
365.91464
390.42789
411.13528
428.40432
442.64207
454.32634
463.91649
471.8031
478.30315
483.67093
488.11084
491.78802
494.83662
497.36613
499.46627
42.701738
42.891179
43.548483
45.584409
50.654315
60.701029
77.112885
99.725264
126.30089
156.07045
192.194
233.0448
271.04904
305.55795
337.58477
366.12364
390.63796
411.34217
428.60619
442.8387
454.51843
464.10487
471.98854
478.48625
483.85218
488.29063
491.96665
495.01433
497.54313
499.64272
42.700379
42.888888
43.541932
45.56521
50.614444
60.635705
77.036917
99.65817
126.26968
156.08449
192.25032
233.14591
271.18817
305.73223
337.78403
366.33265
390.848
411.54901
428.80801
443.03528
454.71046
464.29321
472.17393
478.6693
484.03338
488.47036
492.14522
495.19199
497.72008
499.81913
42.699019
42.886602
43.535415
45.54612
50.574646
60.57036
76.960762
99.590716
126.23808
156.09817
192.30638
233.24693
271.32733
305.9066
337.98335
366.54165
391.058
411.75579
429.00975
443.23178
454.90241
464.48146
472.35924
478.85227
484.2145
488.65
492.3237
495.36956
497.89695
499.99545
42.697659
42.884321
43.528932
45.527092
50.534904
60.505005
76.884409
99.522911
126.20608
156.11149
192.36218
233.34787
271.46654
306.08108
338.18272
366.75069
391.268
411.96255
429.21146
443.42824
455.09432
464.66967
472.54451
479.03521
484.39558
488.82962
492.50215
495.54711
498.07378
500.17174
42.696297
42.882047
43.522499
45.508167
50.49524
60.439617