/*--------------------------------*- C++ -*----------------------------------*\
| =========                 |                                                 |
| \\      /  F ield         | OpenFOAM: The Open Source CFD Toolbox           |
|  \\    /   O peration     | Version:  v2012                                 |
|   \\  /    A nd           | Website:  www.openfoam.com                      |
|    \\/     M anipulation  |                                                 |
\*---------------------------------------------------------------------------*/
FoamFile
{
    version     2.0;
    format      ascii;
    class       volVectorField;
    location    "850";
    object      U;
}
// * * * * * * * * * * * * * * * * * * * * * * * * * * * * * * * * * * * * * //

dimensions      [0 1 -1 0 0 0 0];


internalField   nonuniform List<vector> 
24000
(
(29.594813 -0.0057458821 0)
(29.759497 -0.017464867 0)
(30.27267 -0.022745277 0)
(31.237515 -0.015089316 0)
(32.603024 -0.0030319652 0)
(34.241241 0.0092777594 0)
(35.928463 0.018855727 0)
(37.468788 0.025768858 0)
(38.600267 0.028441988 0)
(39.277556 0.027990543 0)
(39.371328 0.026494242 0)
(38.521055 0.023797637 0)
(36.789686 0.021326349 0)
(34.41987 0.01869612 0)
(31.417889 0.014757326 0)
(27.911344 0.012022651 0)
(24.226253 0.0097161293 0)
(20.608724 0.0075221165 0)
(17.225425 0.0055247924 0)
(14.19316 0.004035131 0)
(11.55845 0.0028731276 0)
(9.3055811 0.0019838702 0)
(7.3939491 0.0013227985 0)
(5.7783965 0.00084609891 0)
(4.4165595 0.0005137052 0)
(3.2707922 0.00029083732 0)
(2.3083283 0.00014846077 0)
(1.5009355 6.3397311e-05 0)
(0.82444098 1.9006331e-05 0)
(0.25824349 1.104195e-06 0)
(29.582355 -0.0063792792 0)
(29.747402 -0.01934618 0)
(30.259353 -0.025124764 0)
(31.221996 -0.016391745 0)
(32.585027 -0.001595964 0)
(34.220411 0.013639335 0)
(35.905303 0.02508493 0)
(37.444301 0.0333585 0)
(38.575698 0.035940417 0)
(39.252897 0.034027629 0)
(39.346217 0.031223004 0)
(38.495496 0.028329394 0)
(36.763109 0.025258488 0)
(34.390663 0.021520253 0)
(31.385137 0.017589098 0)
(27.875715 0.013799743 0)
(24.188236 0.010546494 0)
(20.568844 0.0078468943 0)
(17.184626 0.0056904487 0)
(14.152618 0.0040254928 0)
(11.519389 0.0027793792 0)
(9.2691976 0.0018673475 0)
(7.361267 0.00121506 0)
(5.7501403 0.00076025666 0)
(4.3931126 0.00045225946 0)
(3.2522322 0.00025096585 0)
(2.2945008 0.00012531255 0)
(1.4915343 5.1972992e-05 0)
(0.81907749 1.4817794e-05 0)
(0.25649839 7.2024815e-07 0)
(29.571677 -0.0066209248 0)
(29.735163 -0.019920314 0)
(30.242319 -0.025710981 0)
(31.199605 -0.016625263 0)
(32.558486 -0.0010530387 0)
(34.191996 0.015065476 0)
(35.876745 0.026882259 0)
(37.4173 0.035218667 0)
(38.551732 0.037475218 0)
(39.231259 0.035171101 0)
(39.326122 0.031625364 0)
(38.476731 0.02819376 0)
(36.744999 0.02425183 0)
(34.371836 0.019785017 0)
(31.364564 0.015243194 0)
(27.854637 0.011040625 0)
(24.168471 0.007631243 0)
(20.551918 0.0050260069 0)
(17.171712 0.0031675791 0)
(14.144212 0.0019231013 0)
(11.515039 0.0011353903 0)
(9.2679549 0.00065392016 0)
(7.3620928 0.00036716871 0)
(5.7521257 0.00020017941 0)
(4.395558 0.0001050185 0)
(3.2546485 5.2064066e-05 0)
(2.2965764 2.3528002e-05 0)
(1.4930919 9.0177947e-06 0)
(0.8200334 2.2986164e-06 0)
(0.25683018 3.9295951e-07 0)
(29.56041 -0.0067932192 0)
(29.722784 -0.020306224 0)
(30.226175 -0.026099972 0)
(31.179182 -0.016780506 0)
(32.534435 -0.00069881611 0)
(34.166046 0.015996523 0)
(35.850233 0.028075664 0)
(37.391541 0.036508201 0)
(38.527806 0.038711743 0)
(39.208685 0.03636633 0)
(39.304257 0.032743927 0)
(38.455205 0.029097378 0)
(36.723236 0.025010865 0)
(34.348618 0.020440842 0)
(31.339399 0.015855888 0)
(27.82913 0.011678531 0)
(24.144231 0.0083238205 0)
(20.529981 0.0057551813 0)
(17.152699 0.0038827096 0)
(14.128272 0.0025693552 0)
(11.501888 0.0016742581 0)
(9.257202 0.0010715507 0)
(7.3533908 0.00066992793 0)
(5.7451915 0.00040577441 0)
(4.3901569 0.00023516731 0)
(3.2505783 0.00012780875 0)
(2.2936585 6.2808005e-05 0)
(1.4911676 2.5777063e-05 0)
(0.81896242 7.2577098e-06 0)
(0.25648985 5.2508778e-07 0)
(29.549084 -0.0068985909 0)
(29.710362 -0.020488361 0)
(30.210087 -0.026272552 0)
(31.158891 -0.016861409 0)
(32.510538 -0.00051759564 0)
(34.140252 0.016495336 0)
(35.823831 0.028711051 0)
(37.365805 0.037209139 0)
(38.503803 0.039400741 0)
(39.185999 0.03706065 0)
(39.28224 0.033375809 0)
(38.433475 0.029641109 0)
(36.701304 0.025437037 0)
(34.325356 0.020769967 0)
(31.314329 0.016103039 0)
(27.803827 0.011855083 0)
(24.12027 0.008436636 0)
(20.508394 0.0058123931 0)
(17.134176 0.0038973213 0)
(14.113057 0.0025571815 0)
(11.489717 0.0016497769 0)
(9.2476226 0.0010449795 0)
(7.3459491 0.00064688818 0)
(5.7394945 0.00038838493 0)
(4.3858809 0.00022342209 0)
(3.2474607 0.00012075329 0)
(2.2914874 5.9110021e-05 0)
(1.4897718 2.4189257e-05 0)
(0.8182032 6.7843085e-06 0)
(0.2562544 5.2969249e-07 0)
(29.537686 -0.0069653258 0)
(29.697942 -0.020568842 0)
(30.194146 -0.02636022 0)
(31.138863 -0.016929722 0)
(32.486944 -0.00043809353 0)
(34.114768 0.016769364 0)
(35.797692 0.029076945 0)
(37.340252 0.037632126 0)
(38.479884 0.039840849 0)
(39.163317 0.037528972 0)
(39.260144 0.033840288 0)
(38.411546 0.030063756 0)
(36.679058 0.025803413 0)
(34.301679 0.021083214 0)
(31.288754 0.016367216 0)
(27.777933 0.012073323 0)
(24.095648 0.008612888 0)
(20.486104 0.0059514096 0)
(17.114928 0.0040043513 0)
(14.097109 0.0026375364 0)
(11.476825 0.0017081769 0)
(9.2373563 0.0010858501 0)
(7.3378784 0.00067426812 0)
(5.7332455 0.00040581311 0)
(4.3811414 0.0002338553 0)
(3.2439729 0.00012646679 0)
(2.2890386 6.1889803e-05 0)
(1.488186 2.5314462e-05 0)
(0.81733502 7.1054755e-06 0)
(0.25598326 5.3608078e-07 0)
(29.526264 -0.0070084399 0)
(29.685536 -0.020590438 0)
(30.178292 -0.026405536 0)
(31.11897 -0.016999003 0)
(32.463494 -0.00042572455 0)
(34.089429 0.016903812 0)
(35.771677 0.029277656 0)
(37.314789 0.037878058 0)
(38.456012 0.040110518 0)
(39.140647 0.037826521 0)
(39.238018 0.03414343 0)
(38.389519 0.030341123 0)
(36.656647 0.026043393 0)
(34.277782 0.021285352 0)
(31.262908 0.016533694 0)
(27.751724 0.012206743 0)
(24.070688 0.008714768 0)
(20.463475 0.006026307 0)
(17.095363 0.0040576082 0)
(14.080882 0.0026741263 0)
(11.463695 0.0017326532 0)
(9.2268955 0.0011018531 0)
(7.3296525 0.0006844487 0)
(5.7268754 0.00041208885 0)
(4.3763098 0.00023756442 0)
(3.2404175 0.00012857572 0)
(2.2865424 6.2980367e-05 0)
(1.4865698 2.5771281e-05 0)
(0.8164504 7.2355623e-06 0)
(0.25570711 5.4100466e-07 0)
(29.514834 -0.0070384681 0)
(29.673151 -0.020580888 0)
(30.162505 -0.026435117 0)
(31.099176 -0.017076965 0)
(32.440144 -0.00045771294 0)
(34.06419 0.016950018 0)
(35.745751 0.029376867 0)
(37.289394 0.038014259 0)
(38.432177 0.0402719 0)
(39.11799 0.038012751 0)
(39.215874 0.034339306 0)
(38.367421 0.03052148 0)
(36.634114 0.026200182 0)
(34.253718 0.021417964 0)
(31.236855 0.016642288 0)
(27.725275 0.012293489 0)
(24.04547 0.0087815687 0)
(20.440589 0.0060760877 0)
(17.075555 0.0040936152 0)
(14.064432 0.0026994443 0)
(11.450369 0.0017499483 0)
(9.2162647 0.0011132646 0)
(7.3212837 0.00069168488 0)
(5.7203885 0.00041644985 0)
(4.3713857 0.00024002148 0)
(3.2367914 0.00012977984 0)
(2.2839952 6.3483298e-05 0)
(1.4849199 2.5948188e-05 0)
(0.81554693 7.2818725e-06 0)
(0.25542496 5.4003519e-07 0)
(29.503406 -0.0070616921 0)
(29.660787 -0.020554984 0)
(30.146769 -0.026461541 0)
(31.079452 -0.017166749 0)
(32.41686 -0.00052047844 0)
(34.039016 0.016938242 0)
(35.719881 0.029410266 0)
(37.264039 0.038077458 0)
(38.408361 0.04036084 0)
(39.095335 0.038124203 0)
(39.19371 0.034462355 0)
(38.34527 0.030636423 0)
(36.611491 0.026299745 0)
(34.229536 0.021500673 0)
(31.210661 0.016708844 0)
(27.698667 0.012345471 0)
(24.020087 0.0088213343 0)
(20.417543 0.0061057621 0)
(17.055599 0.0041153191 0)
(14.047849 0.0027152569 0)
(11.436925 0.0017612118 0)
(9.2055338 0.0011211079 0)
(7.3128314 0.00069707445 0)
(5.7138335 0.0004200977 0)
(4.3664078 0.00024242314 0)
(3.2331245 0.00013134044 0)
(2.2814186 6.4406335e-05 0)
(1.4832504 2.6385209e-05 0)
(0.81463259 7.4148506e-06 0)
(0.25513936 5.4963576e-07 0)
(29.491987 -0.007081846 0)
(29.648443 -0.020521246 0)
(30.131074 -0.026493956 0)
(31.059784 -0.0172687 0)
(32.393626 -0.00060514776 0)
(34.013887 0.016886089 0)
(35.694049 0.02940016 0)
(37.23871 0.038092358 0)
(38.384554 0.040400954 0)
(39.072675 0.038184908 0)
(39.171526 0.034534393 0)
(38.323075 0.030704301 0)
(36.588799 0.026357171 0)
(34.205264 0.021546283 0)
(31.184365 0.016745832 0)
(27.67195 0.012375493 0)
(23.994595 0.0088442182 0)
(20.394393 0.0061227507 0)
(17.035546 0.0041277858 0)
(14.031178 0.0027242409 0)
(11.423403 0.0017674219 0)
(9.1947343 0.0011251814 0)
(7.3043209 0.00069955243 0)
(5.7072308 0.00042145633 0)
(4.3613919 0.00024306961 0)
(3.2294285 0.00013152967 0)
(2.2788209 6.4393216e-05 0)
(1.481567 2.6343658e-05 0)
(0.81371053 7.4024327e-06 0)
(0.25485132 5.4795967e-07 0)
(29.480576 -0.0071011855 0)
(29.636117 -0.020485191 0)
(30.115418 -0.026535501 0)
(31.040155 -0.017381193 0)
(32.370429 -0.00070594417 0)
(33.988792 0.01680637 0)
(35.668243 0.029360665 0)
(37.213395 0.038073759 0)
(38.360749 0.040407307 0)
(39.050006 0.038210619 0)
(39.149321 0.034571257 0)
(38.300839 0.030739316 0)
(36.566049 0.026386938 0)
(34.180923 0.021570112 0)
(31.157993 0.016764629 0)
(27.645156 0.012390824 0)
(23.969026 0.008856086 0)
(20.371172 0.0061317904 0)
(17.015429 0.0041346111 0)
(14.014449 0.002729123 0)
(11.409829 0.0017708498 0)
(9.1838897 0.0011275692 0)
(7.2957722 0.0007011665 0)
(5.7005967 0.00042251818 0)
(4.3563511 0.00024374395 0)
(3.2257135 0.00013198326 0)
(2.2762095 6.4668779e-05 0)
(1.4798746 2.6465593e-05 0)
(0.81278336 7.4350085e-06 0)
(0.25456165 5.4610057e-07 0)
(29.469174 -0.0071209118 0)
(29.623807 -0.02044995 0)
(30.099793 -0.026583258 0)
(31.020558 -0.017501907 0)
(32.347264 -0.00082014856 0)
(33.963723 0.016705881 0)
(35.642455 0.029299814 0)
(37.188091 0.038031323 0)
(38.336942 0.040390066 0)
(39.027325 0.038212428 0)
(39.127094 0.034585195 0)
(38.278569 0.030753466 0)
(36.543253 0.026399296 0)
(34.156529 0.021579017 0)
(31.131568 0.016769442 0)
(27.61831 0.012393463 0)
(23.94341 0.0088579971 0)
(20.347909 0.0061334447 0)
(16.995277 0.0041359949 0)
(13.997687 0.0027303125 0)
(11.396225 0.0017717439 0)
(9.1730186 0.0011281419 0)
(7.2872006 0.0007014596 0)
(5.6939434 0.00042260082 0)
(4.3512948 0.00024369248 0)
(3.2219865 0.00013181935 0)
(2.2735893 6.4503342e-05 0)
(1.4781761 2.6371262e-05 0)
(0.81185287 7.407439e-06 0)
(0.25427092 5.4376072e-07 0)
(29.457781 -0.0071413976 0)
(29.61151 -0.020416667 0)
(30.084196 -0.026636724 0)
(31.000992 -0.017630128 0)
(32.324127 -0.0009449648 0)
(33.938674 0.016589223 0)
(35.616681 0.029223048 0)
(37.162792 0.0379728 0)
(38.31313 0.040356665 0)
(39.004629 0.038197389 0)
(39.104846 0.034583294 0)
(38.256269 0.030753129 0)
(36.520418 0.026397349 0)
(34.132093 0.021574231 0)
(31.105104 0.016764993 0)
(27.591432 0.012390481 0)
(23.917768 0.008855796 0)
(20.324628 0.0061320677 0)
(16.97511 0.004135503 0)
(13.980914 0.0027306641 0)
(11.38261 0.001772456 0)
(9.1621366 0.0011289256 0)
(7.2786191 0.00070225298 0)
(5.6872815 0.00042334873 0)
(4.3462314 0.0002443372 0)
(3.2182539 0.00013237115 0)
(2.2709649 6.4897795e-05 0)
(1.476475 2.6576702e-05 0)
(0.81092083 7.4679619e-06 0)
(0.2539797 5.4657352e-07 0)
(29.446395 -0.0071626346 0)
(29.599226 -0.020385629 0)
(30.068626 -0.026695137 0)
(30.981452 -0.017764677 0)
(32.301016 -0.001079109 0)
(33.913644 0.016460063 0)
(35.590918 0.029134262 0)
(37.137494 0.037901069 0)
(38.289309 0.040310674 0)
(38.981918 0.038169337 0)
(39.082576 0.034568969 0)
(38.23394 0.030741182 0)
(36.497548 0.026385357 0)
(34.10762 0.021561213 0)
(31.078607 0.01675336 0)
(27.564528 0.012381587 0)
(23.892107 0.0088489149 0)
(20.301334 0.0061269927 0)
(16.954934 0.0041321734 0)
(13.964131 0.0027285693 0)
(11.368985 0.001771106 0)
(9.1512445 0.0011279938 0)
(7.2700282 0.000701529 0)
(5.6806115 0.00042275166 0)
(4.3411613 0.00024385728 0)
(3.2145162 0.00013196399 0)
(2.2683369 6.4602316e-05 0)
(1.4747713 2.6423436e-05 0)
(0.80998741 7.425268e-06 0)
(0.25368804 5.4432965e-07 0)
(29.435015 -0.007184749 0)
(29.586953 -0.020357296 0)
(30.053081 -0.026758318 0)
(30.96194 -0.017904167 0)
(32.27793 -0.0012199983 0)
(33.888631 0.016321557 0)
(35.565164 0.029037313 0)
(37.112197 0.037820292 0)
(38.265478 0.040255522 0)
(38.959191 0.038131859 0)
(39.060285 0.034545583 0)
(38.211584 0.030721202 0)
(36.474647 0.026368154 0)
(34.083117 0.021545187 0)
(31.052088 0.016737764 0)
(27.537611 0.012368064 0)
(23.866441 0.008838452 0)
(20.278043 0.0061196317 0)
(16.934766 0.0041271994 0)
(13.947356 0.0027252368 0)
(11.355366 0.0017689882 0)
(9.140357 0.0011267366 0)
(7.2614408 0.00070081655 0)
(5.6739439 0.00042237987 0)
(4.336093 0.00024369142 0)
(3.2107795 0.00013195281 0)
(2.2657095 6.464508e-05 0)
(1.4730681 2.645024e-05 0)
(0.80905415 7.4302109e-06 0)
(0.2533964 5.4092669e-07 0)
(29.42364 -0.0072079549 0)
(29.574691 -0.020331614 0)
(30.037559 -0.026824987 0)
(30.942454 -0.018047324 0)
(32.254868 -0.0013667623 0)
(33.863633 0.016175287 0)
(35.539419 0.028934175 0)
(37.086902 0.037732691 0)
(38.24164 0.040193482 0)
(38.936449 0.038087198 0)
(39.037976 0.034514981 0)
(38.189205 0.030694531 0)
(36.451719 0.026344053 0)
(34.058589 0.021522196 0)
(31.025552 0.016717597 0)
(27.510688 0.012352341 0)
(23.840778 0.0088264481 0)
(20.25476 0.0061109729 0)
(16.914608 0.0041212121 0)
(13.93059 0.0027213644 0)
(11.341754 0.00176647 0)
(9.1294736 0.0011250817 0)
(7.2528554 0.00069969654 0)
(5.6672771 0.00042159539 0)
(4.3310245 0.00024313377 0)
(3.2070424 0.00013152774 0)
(2.2630815 6.4362994e-05 0)
(1.4713643 2.6310346e-05 0)
(0.80812056 7.38957e-06 0)
(0.25310465 5.378131e-07 0)
(29.412269 -0.0072323453 0)
(29.562437 -0.020307936 0)
(30.02206 -0.026894662 0)
(30.922992 -0.018193828 0)
(32.231831 -0.0015178405 0)
(33.838649 0.016023045 0)
(35.513681 0.028825735 0)
(37.061607 0.037639194 0)
(38.217793 0.040126884 0)
(38.913693 0.038038009 0)
(39.015648 0.034480008 0)
(38.166805 0.030664047 0)
(36.428768 0.026315717 0)
(34.034039 0.021494783 0)
(30.999004 0.016694164 0)
(27.483764 0.012334505 0)
(23.815122 0.0088131 0)
(20.231491 0.0061013039 0)
(16.894466 0.0041148671 0)
(13.913839 0.0027176315 0)
(11.328153 0.0017644021 0)
(9.1185987 0.0011240166 0)
(7.2442762 0.00069930671 0)
(5.660615 0.0004216118 0)
(4.3259598 0.00024334173 0)
(3.2033081 0.00013183017 0)
(2.2604555 6.4630529e-05 0)
(1.4696618 2.6464138e-05 0)
(0.80718767 7.433459e-06 0)
(0.25281312 5.387389e-07 0)
(29.4009 -0.0072578055 0)
(29.55019 -0.020285572 0)
(30.006581 -0.026966513 0)
(30.903555 -0.018343704 0)
(32.208819 -0.0016732192 0)
(33.81368 0.015865158 0)
(35.487951 0.028712996 0)
(37.036313 0.03754218 0)
(38.193939 0.040057576 0)
(38.890923 0.037985709 0)
(38.993304 0.034441698 0)
(38.144385 0.030630106 0)
(36.405796 0.026285284 0)
(34.009472 0.021466892 0)
(30.972449 0.016669125 0)
(27.456843 0.012313299 0)
(23.789479 0.00879649 0)
(20.208241 0.006089192 0)
(16.874347 0.0041064979 0)
(13.897107 0.0027119973 0)
(11.314568 0.001760645 0)
(9.1077357 0.0011214956 0)
(7.2357063 0.00069757309 0)
(5.6539599 0.00042040935 0)
(4.3209001 0.0002425207 0)
(3.1995775 0.00013124156 0)
(2.2578322 6.4248021e-05 0)
(1.467961 2.6276187e-05 0)
(0.80625572 7.3829562e-06 0)
(0.25252189 5.3782223e-07 0)
(29.389531 -0.007284374 0)
(29.53795 -0.020264649 0)
(29.991125 -0.027040072 0)
(30.884142 -0.018495668 0)
(32.185831 -0.0018317976 0)
(33.788725 0.015703033 0)
(35.462227 0.028597263 0)
(37.011018 0.037441283 0)
(38.170075 0.039984731 0)
(38.86814 0.037929842 0)
(38.970942 0.034400038 0)
(38.121946 0.030593157 0)
(36.382803 0.026253026 0)
(33.984888 0.021437488 0)
(30.945889 0.016643167 0)
(27.429931 0.01229278 0)
(23.763854 0.0087808282 0)
(20.185016 0.0060780457 0)
(16.854255 0.0040988099 0)
(13.880401 0.0027068322 0)
(11.301004 0.0017573224 0)
(9.0968907 0.001119458 0)
(7.2271505 0.00069636466 0)
(5.6473156 0.00041973338 0)
(4.3158486 0.00024218092 0)
(3.1958528 0.00013114012 0)
(2.2552128 6.4245604e-05 0)
(1.4662628 2.6282508e-05 0)
(0.80532517 7.3802132e-06 0)
(0.25223108 5.3304801e-07 0)
(29.378163 -0.0073122877 0)
(29.525715 -0.020245559 0)
(29.975691 -0.027115085 0)
(30.864753 -0.018649082 0)
(32.162867 -0.0019926373 0)
(33.763783 0.015538179 0)
(35.436511 0.02848008 0)
(36.985724 0.037337888 0)
(38.146205 0.039908863 0)
(38.845343 0.037871071 0)
(38.948563 0.034356139 0)
(38.099488 0.030554364 0)
(36.35979 0.02621769 0)
(33.960286 0.021404527 0)
(30.919322 0.01661496 0)
(27.403025 0.012271136 0)
(23.738243 0.008764592 0)
(20.161812 0.0060661185 0)
(16.834184 0.0040904697 0)
(13.863713 0.0027013148 0)
(11.287454 0.001753661 0)
(9.0860551 0.0011170396 0)
(7.218601 0.00069474563 0)
(5.6406757 0.00041863258 0)
(4.3108 0.0002414364 0)
(3.19213 0.00013061096 0)
(2.2525947 6.3912166e-05 0)
(1.4645654 2.6125287e-05 0)
(0.80439498 7.3399118e-06 0)
(0.25194037 5.3301686e-07 0)
(29.366793 -0.0073416535 0)
(29.513484 -0.020228087 0)
(29.960275 -0.027191038 0)
(30.845388 -0.018803407 0)
(32.139929 -0.0021557764 0)
(33.738854 0.015369861 0)
(35.410801 0.028361171 0)
(36.960431 0.037233011 0)
(38.122327 0.039831612 0)
(38.822534 0.037811072 0)
(38.926169 0.034311986 0)
(38.077014 0.030515614 0)
(36.33676 0.026182334 0)
(33.935672 0.021371976 0)
(30.892755 0.016586687 0)
(27.37613 0.01224781 0)
(23.712654 0.008746622 0)
(20.138635 0.0060531097 0)
(16.814143 0.004081785 0)
(13.847053 0.0026959036 0)
(11.273927 0.0017504173 0)
(9.0752382 0.0011151693 0)
(7.2100668 0.00069381109 0)
(5.6340479 0.00041827674 0)
(4.3057609 0.00024139219 0)
(3.1884144 0.00013075615 0)
(2.2499818 6.4090599e-05 0)
(1.4628713 2.62341e-05 0)
(0.80346666 7.3652339e-06 0)
(0.25165025 5.2938384e-07 0)
(29.355422 -0.0073722485 0)
(29.501257 -0.020211358 0)
(29.944879 -0.027268079 0)
(30.826046 -0.018959383 0)
(32.117015 -0.0023206007 0)
(33.713938 0.015199478 0)
(35.385097 0.028240613 0)
(36.935138 0.037125937 0)
(38.098442 0.0397534 0)
(38.799713 0.03775017 0)
(38.90376 0.034267012 0)
(38.054523 0.030475297 0)
(36.313714 0.026146687 0)
(33.911046 0.021339105 0)
(30.866188 0.016557245 0)
(27.349249 0.012223866 0)
(23.687088 0.0087279542 0)
(20.115489 0.0060396207 0)
(16.794135 0.0040724365 0)
(13.830421 0.0026896126 0)
(11.260424 0.0017462407 0)
(9.0644402 0.0011123829 0)
(7.201547 0.00069192232 0)
(5.6274309 0.00041699948 0)
(4.3007299 0.00024053736 0)
(3.1847046 0.00013014826 0)
(2.2473729 6.3701751e-05 0)
(1.4611798 2.6047585e-05 0)
(0.80253976 7.3190781e-06 0)
(0.25136058 5.3121047e-07 0)
(29.344049 -0.0074038268 0)
(29.489032 -0.020194917 0)
(29.929505 -0.027345494 0)
(30.806727 -0.019116245 0)
(32.094127 -0.002487667 0)
(33.689034 0.01502609 0)
(35.359399 0.028118769 0)
(36.909845 0.037018029 0)
(38.07455 0.0396749 0)
(38.776878 0.037688807 0)
(38.881336 0.034221184 0)
(38.032015 0.030433753 0)
(36.290649 0.026109796 0)
(33.886405 0.021305809 0)
(30.839619 0.016528908 0)
(27.322379 0.012202411 0)
(23.661544 0.0087120814 0)
(20.092371 0.0060282468 0)
(16.774156 0.0040645155 0)
(13.813816 0.0026842894 0)
(11.246943 0.0017428043 0)
(9.0536595 0.0011102583 0)
(7.1930408 0.00069065547 0)
(5.6208244 0.00041629177 0)
(4.2957066 0.00024018623 0)
(3.1810005 0.00013004476 0)
(2.244768 6.3699211e-05 0)
(1.4594909 2.6053326e-05 0)
(0.80161424 7.3143965e-06 0)
(0.25107134 5.2563056e-07 0)
(29.332674 -0.0074362373 0)
(29.476809 -0.020179679 0)
(29.914152 -0.027423426 0)
(30.787432 -0.019273024 0)
(32.071264 -0.0026558028 0)
(33.664143 0.014851468 0)
(35.333707 0.027997128 0)
(36.884552 0.036909062 0)
(38.05065 0.039595421 0)
(38.754032 0.037626562 0)
(38.858896 0.034174942 0)
(38.00949 0.030392825 0)
(36.267568 0.02607261 0)
(33.861749 0.021271925 0)
(30.813048 0.016499525 0)
(27.295519 0.012178504 0)
(23.636018 0.0086937505 0)
(20.069276 0.0060147022 0)
(16.754201 0.0040550906 0)
(13.797231 0.0026780178 0)
(11.233478 0.0017386305 0)
(9.0428914 0.0011075157 0)
(7.1845442 0.00068883552 0)
(5.6142252 0.00041507632 0)
(4.2906889 0.00023938833 0)
(3.1773004 0.00012950094 0)
(2.2421659 6.3364547e-05 0)
(1.4578038 2.5897191e-05 0)
(0.80068971 7.2756504e-06 0)
(0.25078239 5.2665816e-07 0)
(29.321294 -0.007469264 0)
(29.464587 -0.020166034 0)
(29.898818 -0.027501544 0)
(30.768159 -0.019429336 0)
(32.048427 -0.0028251723 0)
(33.639264 0.014675417 0)
(35.308021 0.027875366 0)
(36.85926 0.036799091 0)
(38.026745 0.039515335 0)
(38.731175 0.037563537 0)
(38.836443 0.034128381 0)
(37.986952 0.030352116 0)
(36.244472 0.026035786 0)
(33.837083 0.021237933 0)
(30.786481 0.016469737 0)
(27.268678 0.012154082 0)
(23.61052 0.0086748612 0)
(20.046216 0.0060012608 0)
(16.734284 0.0040462342 0)
(13.780682 0.0026725485 0)
(11.220043 0.0017354084 0)
(9.0321474 0.0011057047 0)
(7.1760667 0.00068796805 0)
(5.607641 0.00041476707 0)
(4.2856827 0.0002393722 0)
(3.1736089 0.00012966644 0)
(2.2395698 6.3555277e-05 0)
(1.4561206 2.6012597e-05 0)
(0.79976734 7.301109e-06 0)
(0.25049412 5.2145153e-07 0)
(29.309911 -0.0075024584 0)
(29.452364 -0.020153024 0)
(29.883502 -0.027580278 0)
(30.748909 -0.019585972 0)
(32.025615 -0.0029959507 0)
(33.614396 0.014496969 0)
(35.28234 0.027752741 0)
(36.83397 0.036688656 0)
(38.002834 0.039435753 0)
(38.708307 0.037500119 0)
(38.813977 0.034080823 0)
(37.9644 0.030309503 0)
(36.221362 0.02599719 0)
(33.812406 0.021202744 0)
(30.759916 0.016439428 0)
(27.241851 0.012130821 0)
(23.585047 0.0086571698 0)
(20.023187 0.0059884592 0)
(16.714397 0.0040372418 0)
(13.764158 0.0026664522 0)
(11.206628 0.0017313245 0)
(9.0214189 0.0011029522 0)
(7.1676008 0.00068608881 0)
(5.6010652 0.00041348966 0)
(4.2806825 0.00023851153 0)
(3.1699216 0.00012905114 0)
(2.2369766 6.3164392e-05 0)
(1.4544392 2.5828206e-05 0)
(0.79884593 7.2581764e-06 0)
(0.25020615 5.2496071e-07 0)
(29.298523 -0.0075354245 0)
(29.440141 -0.020140355 0)
(29.868206 -0.027659699 0)
(30.72968 -0.019743553 0)
(32.00283 -0.0031682699 0)
(33.58954 0.014317181 0)
(35.256665 0.027629418 0)
(36.808679 0.036577035 0)
(37.978917 0.039356396 0)
(38.685428 0.037436803 0)
(38.791497 0.034033387 0)
(37.941833 0.030267285 0)
(36.198236 0.025959368 0)
(33.787715 0.021169318 0)
(30.73335 0.016410652 0)
(27.215036 0.012108197 0)
(23.559595 0.0086403686 0)
(20.000185 0.0059762614 0)
(16.694539 0.0040287025 0)
(13.747661 0.0026606913 0)
(11.193236 0.0017275705 0)
(9.0107097 0.0011005933 0)
(7.1591507 0.00068466557 0)
(5.5945022 0.00041269202 0)
(4.2756923 0.00023810635 0)
(3.1662419 0.00012891609 0)
(2.2343888 6.3147123e-05 0)
(1.4527614 2.5826884e-05 0)
(0.79792649 7.2497753e-06 0)
(0.2499188 5.182769e-07 0)
(29.287131 -0.0075680604 0)
(29.427919 -0.020128392 0)
(29.852929 -0.027739744 0)
(30.710475 -0.019900964 0)
(31.980071 -0.0033419532 0)
(33.564696 0.014135272 0)
(35.230994 0.027506278 0)
(36.783389 0.036465452 0)
(37.954993 0.039276979 0)
(38.662538 0.037373277 0)
(38.769004 0.033986054 0)
(37.919253 0.030225413 0)
(36.175096 0.025921565 0)
(33.763014 0.021134751 0)
(30.706788 0.016380684 0)
(27.188237 0.012083132 0)
(23.534168 0.0086208475 0)
(19.977212 0.0059620458 0)
(16.674712 0.0040190028 0)
(13.731191 0.0026543032 0)
(11.179866 0.001723371 0)
(9.0000167 0.0010978734 0)
(7.1507129 0.00068287483 0)
(5.5879483 0.00041150563 0)
(4.2707089 0.000237338 0)
(3.1625671 0.0001283888 0)
(2.2318044 6.2818441e-05 0)
(1.4510857 2.567364e-05 0)
(0.79700823 7.2138462e-06 0)
(0.24963181 5.2101948e-07 0)
(29.275733 -0.0076005652 0)
(29.415698 -0.02011738 0)
(29.837672 -0.027820251 0)
(30.691292 -0.020057934 0)
(31.957339 -0.0035160642 0)
(33.539862 0.013952909 0)
(35.205329 0.027383704 0)
(36.758099 0.0363531 0)
(37.931065 0.03919659 0)
(38.639639 0.037308401 0)
(38.7465 0.033937905 0)
(37.89666 0.030182448 0)
(36.151945 0.02588286 0)
(33.738306 0.021098136 0)
(30.680232 0.016349373 0)
(27.161459 0.01205912 0)
(23.50877 0.0086025885 0)
(19.954277 0.0059491582 0)
(16.654922 0.0040105204 0)
(13.714754 0.0026490698 0)
(11.166523 0.0017202916 0)
(8.9893452 0.0010961428 0)
(7.1422916 0.00068203792 0)
(5.581407 0.00041119418 0)
(4.2657348 0.00023730882 0)
(3.158899 0.00012854255 0)
(2.2292247 6.2996248e-05 0)
(1.449413 2.5777228e-05 0)
(0.79609159 7.232346e-06 0)
(0.24934532 5.1336128e-07 0)
(29.264331 -0.0076330853 0)
(29.403477 -0.020106839 0)
(29.822432 -0.027900551 0)
(30.672131 -0.020214407 0)
(31.934634 -0.0036911451 0)
(33.51504 0.013768813 0)
(35.179669 0.02726092 0)
(36.732812 0.036239956 0)
(37.907132 0.03911603 0)
(38.616732 0.037242761 0)
(38.723985 0.033889281 0)
(37.874055 0.030138497 0)
(36.128781 0.025843449 0)
(33.71359 0.021062494 0)
(30.653679 0.016318596 0)
(27.134696 0.012035005 0)
(23.483398 0.0085845313 0)
(19.931371 0.0059359652 0)
(16.635162 0.0040010925 0)
(13.698343 0.0026426177 0)
(11.1532 0.0017159293 0)
(8.9786898 0.001093192 0)
(7.1338828 0.00068002962 0)
(5.5748752 0.00040982614 0)
(4.2607679 0.00023639085 0)
(3.1552362 0.00012789957 0)
(2.2266486 6.2595337e-05 0)
(1.4477428 2.5592034e-05 0)
(0.79517627 7.1917709e-06 0)
(0.24905924 5.1839966e-07 0)
(29.252923 -0.0076655185 0)
(29.391256 -0.020096164 0)
(29.807211 -0.027980706 0)
(30.652992 -0.020371333 0)
(31.911956 -0.0038669525 0)
(33.490228 0.013583228 0)
(35.154014 0.027137828 0)
(36.707526 0.036126773 0)
(37.883194 0.039036387 0)
(38.593815 0.037177845 0)
(38.701459 0.033841996 0)
(37.851437 0.030096452 0)
(36.105603 0.025806278 0)
(33.688866 0.021029731 0)
(30.627133 0.016290296 0)
(27.107952 0.012011507 0)
(23.458053 0.0085666851 0)
(19.908498 0.0059230794 0)
(16.615437 0.0039922216 0)
(13.681964 0.0026367232 0)
(11.139905 0.0017121429 0)
(8.9680577 0.0010908378 0)
(7.1254932 0.00067863238 0)
(5.568359 0.00040906516 0)
(4.2558133 0.00023601169 0)
(3.1515827 0.00012777895 0)
(2.2240793 6.2588797e-05 0)
(1.4460769 2.5597668e-05 0)
(0.79426334 7.1847039e-06 0)
(0.24877391 5.1102725e-07 0)
(29.24151 -0.0076977775 0)
(29.379035 -0.020085386 0)
(29.792008 -0.028060147 0)
(30.633874 -0.020528143 0)
(31.889305 -0.0040438891 0)
(33.465427 0.013396544 0)
(35.128363 0.02701528 0)
(36.682239 0.036012833 0)
(37.859251 0.038956374 0)
(38.570888 0.037112618 0)
(38.678921 0.033794784 0)
(37.828807 0.030054635 0)
(36.082414 0.025768526 0)
(33.664135 0.020993572 0)
(30.60059 0.016259225 0)
(27.081225 0.011987124 0)
(23.432735 0.0085477348 0)
(19.885657 0.0059094727 0)
(16.595744 0.0039831146 0)
(13.665612 0.0026307994 0)
(11.126631 0.0017082884 0)
(8.9574404 0.0010883675 0)
(7.1171138 0.00067701478 0)
(5.5618497 0.00040800266 0)
(4.2508633 0.00023532343 0)
(3.1479322 0.00012729987 0)
(2.2215119 6.2288314e-05 0)
(1.4444121 2.545726e-05 0)
(0.79335103 7.1528116e-06 0)
(0.24848878 5.1431756e-07 0)
(29.230091 -0.0077299306 0)
(29.366814 -0.02007508 0)
(29.776825 -0.028138872 0)
(30.614779 -0.02068372 0)
(31.866682 -0.0042209926 0)
(33.440635 0.013208794 0)
(35.102717 0.026893743 0)
(36.656952 0.035899292 0)
(37.835302 0.038876331 0)
(38.547952 0.037047103 0)
(38.656372 0.033747467 0)
(37.806165 0.030012194 0)
(36.059213 0.025730359 0)
(33.639397 0.020957828 0)
(30.574052 0.016228508 0)
(27.054517 0.011963541 0)
(23.407445 0.0085302513 0)
(19.862849 0.0058970945 0)
(16.576084 0.0039748677 0)
(13.649289 0.0026256637 0)
(11.113381 0.0017052597 0)
(8.9468423 0.0010866642 0)
(7.1087493 0.00067619168 0)
(5.5553518 0.00040770336 0)
(4.2459218 0.00023531285 0)
(3.144288 0.00012747357 0)
(2.2189488 6.2480494e-05 0)
(1.4427502 2.5566997e-05 0)
(0.79244025 7.1682301e-06 0)
(0.24820411 5.0386464e-07 0)
(29.218667 -0.0077620377 0)
(29.354592 -0.020065401 0)
(29.761658 -0.02821659 0)
(30.595704 -0.020837822 0)
(31.844086 -0.0043982036 0)
(33.415853 0.013020706 0)
(35.077074 0.026773024 0)
(36.631667 0.035785384 0)
(37.811349 0.038796845 0)
(38.525009 0.036981692 0)
(38.633814 0.033700256 0)
(37.783513 0.02996955 0)
(36.036001 0.02569278 0)
(33.614654 0.020924512 0)
(30.547522 0.01619904 0)
(27.027827 0.011938961 0)
(23.382182 0.0085114631 0)
(19.840075 0.0058832041 0)
(16.556458 0.0039648518 0)
(13.632996 0.0026187849 0)
(11.100155 0.0017005952 0)
(8.9362645 0.0010835091 0)
(7.1004014 0.00067405066 0)
(5.5488671 0.00040624406 0)
(4.2409906 0.00023433976 0)
(3.1406515 0.00012679476 0)
(2.2163913 6.205392e-05 0)
(1.441092 2.5369506e-05 0)
(0.79153151 7.1278137e-06 0)
(0.24792008 5.1158344e-07 0)
(29.207236 -0.0077939706 0)
(29.342368 -0.020055511 0)
(29.746508 -0.028293243 0)
(30.57665 -0.020991045 0)
(31.821516 -0.0045756813 0)
(33.39108 0.012830985 0)
(35.051435 0.026652105 0)
(36.606382 0.035671123 0)
(37.787392 0.038718568 0)
(38.502056 0.036916907 0)
(38.611245 0.033653669 0)
(37.76085 0.029928001 0)
(36.012777 0.025655846 0)
(33.589903 0.020890847 0)
(30.520998 0.016170701 0)
(27.001158 0.011916706 0)
(23.356949 0.0084945066 0)
(19.817335 0.005871211 0)
(16.536868 0.0039568482 0)
(13.616737 0.0026136109 0)
(11.086958 0.0016973614 0)
(8.9257099 0.0010815639 0)
(7.092072 0.00067294601 0)
(5.5423971 0.00040567151 0)
(4.2360707 0.00023407451 0)
(3.1370234 0.00012675349 0)
(2.2138397 6.2096359e-05 0)
(1.4394376 2.5396131e-05 0)
(0.79062489 7.1251865e-06 0)
(0.24763673 5.0306456e-07 0)
(29.1958 -0.0078255417 0)
(29.330144 -0.020045086 0)
(29.731375 -0.028368801 0)
(30.557617 -0.021144193 0)
(31.798974 -0.0047537184 0)
(33.366316 0.012640643 0)
(35.0258 0.02653216 0)
(36.581096 0.03555698 0)
(37.763429 0.038640934 0)
(38.479095 0.036852212 0)
(38.588667 0.033607251 0)
(37.738175 0.029887035 0)
(35.989543 0.025618588 0)
(33.565146 0.020854758 0)
(30.494478 0.016139468 0)
(26.974505 0.01189256 0)
(23.331739 0.0084761298 0)
(19.794624 0.0058580432 0)
(16.517305 0.0039480145 0)
(13.600498 0.0026078136 0)
(11.073775 0.0016935306 0)
(8.9151637 0.001079058 0)
(7.0837474 0.00067127083 0)
(5.5359293 0.00040455735 0)
(4.2311517 0.00023333712 0)
(3.1333954 0.00012621761 0)
(2.2112879 6.1754783e-05 0)
(1.4377829 2.5241168e-05 0)
(0.78971808 7.0954596e-06 0)
(0.2473533 5.1005078e-07 0)
(29.184358 -0.007856659 0)
(29.317919 -0.020034619 0)
(29.716261 -0.028442879 0)
(30.538604 -0.021295783 0)
(31.776459 -0.0049320841 0)
(33.34156 0.012449368 0)