/*--------------------------------*- C++ -*----------------------------------*\
| =========                 |                                                 |
| \\      /  F ield         | OpenFOAM: The Open Source CFD Toolbox           |
|  \\    /   O peration     | Version:  v2012                                 |
|   \\  /    A nd           | Website:  www.openfoam.com                      |
|    \\/     M anipulation  |                                                 |
\*---------------------------------------------------------------------------*/
FoamFile
{
    version     2.0;
    format      ascii;
    class       volScalarField;
    location    "150";
    object      alphat;
}
// * * * * * * * * * * * * * * * * * * * * * * * * * * * * * * * * * * * * * //

dimensions      [1 -1 -1 0 0 0 0];


internalField   nonuniform List<scalar> 
24000
(
0.0010372819
0.00024053762
0.00097384101
0.0010576347
0.00053956012
0.0001982015
0.00010291276
6.5824173e-05
3.983941e-05
2.2421722e-05
1.3709065e-05
1.0023635e-05
7.4309438e-06
4.1199198e-06
3.3441504e-06
2.3853422e-06
1.540548e-06
9.5214634e-07
5.5126913e-07
2.7502952e-07
1.0775092e-07
3.5599124e-08
1.0104968e-08
2.4877934e-09
5.2462032e-10
9.0819856e-11
1.2169502e-11
1.6190432e-12
8.2776709e-13
8.7645098e-13
0.0010378383
0.00023795365
0.00097414847
0.0010574959
0.00048491321
0.0001858637
9.8542346e-05
6.2568136e-05
3.80401e-05
2.170166e-05
1.3288126e-05
9.6565752e-06
7.4558082e-06
4.1064616e-06
3.3464633e-06
2.4244629e-06
1.5712651e-06
9.7646171e-07
5.6811969e-07
2.8192609e-07
1.1048417e-07
3.6490873e-08
1.0360079e-08
2.5529767e-09
5.3922422e-10
9.3668124e-11
1.2755671e-11
1.8850341e-12
1.083451e-12
1.136991e-12
0.0010384222
0.00023978742
0.00097447249
0.0010572925
0.00052389416
0.00019618408
0.00010231236
6.4667827e-05
3.9401171e-05
2.235364e-05
1.3588424e-05
9.8225999e-06
7.4750383e-06
4.1132654e-06
3.357251e-06
2.4300746e-06
1.577286e-06
9.8206866e-07
5.7310382e-07
2.8949328e-07
1.1420283e-07
3.7864368e-08
1.0763712e-08
2.6516685e-09
5.5949607e-10
9.6994586e-11
1.3093688e-11
1.8305378e-12
9.9147928e-13
1.0437432e-12
0.0010390166
0.00024071846
0.00097479568
0.0010571341
0.00053697058
0.00019908986
0.00010331845
6.5089092e-05
3.9513881e-05
2.2327514e-05
1.3525056e-05
9.7446289e-06
7.4652763e-06
4.1061487e-06
3.3572443e-06
2.4370245e-06
1.5792505e-06
9.8171448e-07
5.7182451e-07
2.8759892e-07
1.131049e-07
3.741125e-08
1.0619726e-08
2.6144717e-09
5.5155391e-10
9.5644345e-11
1.2937511e-11
1.833374e-12
1.0081335e-12
1.0602903e-12
0.0010396152
0.00024165435
0.00097510703
0.0010569879
0.00054930495
0.00020132847
0.00010405671
6.5374313e-05
3.9599289e-05
2.2329513e-05
1.3503648e-05
9.7191231e-06
7.4503254e-06
4.1012298e-06
3.3573419e-06
2.4359526e-06
1.5783991e-06
9.8114114e-07
5.7152497e-07
2.8759338e-07
1.131295e-07
3.7423746e-08
1.0623315e-08
2.615193e-09
5.5165681e-10
9.5650669e-11
1.2933682e-11
1.8290057e-12
1.0034777e-12
1.0555594e-12
0.0010402178
0.00024231668
0.00097541206
0.0010568553
0.00055706697
0.00020268181
0.00010448693
6.5519143e-05
3.9641318e-05
2.2330262e-05
1.3483863e-05
9.6942172e-06
7.4341827e-06
4.0955756e-06
3.3570653e-06
2.4358111e-06
1.5779351e-06
9.8060163e-07
5.7106455e-07
2.8723787e-07
1.129521e-07
3.7354793e-08
1.0601644e-08
2.6095205e-09
5.5041572e-10
9.5431408e-11
1.2904697e-11
1.8260447e-12
1.0025944e-12
1.0545985e-12
0.0010408241
0.00024288434
0.00097571157
0.0010567304
0.0005624604
0.00020371549
0.00010484183
6.5645442e-05
3.969224e-05
2.2339414e-05
1.3469962e-05
9.6744999e-06
7.4181169e-06
4.0899899e-06
3.3567881e-06
2.4353218e-06
1.5773469e-06
9.8003371e-07
5.7061975e-07
2.8693222e-07
1.128055e-07
3.7299173e-08
1.0584356e-08
2.6050056e-09
5.4942504e-10
9.5254952e-11
1.2880596e-11
1.8228984e-12
1.0010825e-12
1.0530142e-12
0.001041434
0.00024333322
0.00097600663
0.0010566087
0.00056639155
0.00020459688
0.00010516541
6.5765904e-05
3.9743965e-05
2.2352153e-05
1.3458266e-05
9.655834e-06
7.4024771e-06
4.0845993e-06
3.3565375e-06
2.4348773e-06
1.5767862e-06
9.7948351e-07
5.7018451e-07
2.8662582e-07
1.1265782e-07
3.7242969e-08
1.0566858e-08
2.6004336e-09
5.4842179e-10
9.5076423e-11
1.285638e-11
1.8199056e-12
9.9975749e-13
1.051618e-12
0.0010420475
0.00024368124
0.00097629789
0.0010564873
0.00056948688
0.00020542377
0.00010548098
6.5885685e-05
3.979576e-05
2.2367375e-05
1.3448187e-05
9.6378378e-06
7.3873531e-06
4.0794592e-06
3.356341e-06
2.4344578e-06
1.5762468e-06
9.789545e-07
5.6976809e-07
2.8633426e-07
1.1251766e-07
3.7189674e-08
1.055027e-08
2.5960979e-09
5.4747001e-10
9.4906947e-11
1.2833378e-11
1.8170645e-12
9.9850155e-13
1.0502937e-12
0.0010426646
0.00024395228
0.00097658643
0.0010563645
0.00057205764
0.00020623049
0.00010579487
6.6004932e-05
3.9846744e-05
2.2384178e-05
1.3439269e-05
9.6202363e-06
7.372734e-06
4.0745699e-06
3.356202e-06
2.4340746e-06
1.5757298e-06
9.784445e-07
5.6936782e-07
2.8605596e-07
1.1238406e-07
3.7138877e-08
1.0534445e-08
2.591958e-09
5.4656045e-10
9.4744898e-11
1.281139e-11
1.8143661e-12
9.9732107e-13
1.0490469e-12
0.0010432854
0.0002441616
0.0009768728
0.0010562386
0.00057429492
0.00020703074
0.00010611414
6.6123582e-05
3.9897744e-05
2.240128e-05
1.3431085e-05
9.6031547e-06
7.3585708e-06
4.0699107e-06
3.3561163e-06
2.4337254e-06
1.5752307e-06
9.7794793e-07
5.6897903e-07
2.8578834e-07
1.1225602e-07
3.7090261e-08
1.0519304e-08
2.5879962e-09
5.4568974e-10
9.4589715e-11
1.2790321e-11
1.8117734e-12
9.9618146e-13
1.0478426e-12
0.0010439099
0.00024431875
0.00097715678
0.0010561085
0.00057630272
0.00020783015
0.00010644346
6.6241222e-05
3.9948931e-05
2.2418242e-05
1.3423274e-05
9.5864654e-06
7.3447884e-06
4.0654524e-06
3.3560757e-06
2.433406e-06
1.5747435e-06
9.7745781e-07
5.685952e-07
2.8552678e-07
1.121313e-07
3.7042992e-08
1.0504591e-08
2.5841464e-09
5.4484333e-10
9.4438793e-11
1.2769809e-11
1.809233e-12
9.9505333e-13
1.0466509e-12
0.0010445382
0.00024443673
0.00097743866
0.0010559734
0.0005781335
0.00020863052
0.00010676629
6.6357434e-05
3.9999968e-05
2.2434935e-05
1.3415617e-05
9.5700196e-06
7.3313199e-06
4.0611694e-06
3.3560735e-06
2.4331145e-06
1.5742662e-06
9.7697104e-07
5.6821273e-07
2.852676e-07
1.1200803e-07
3.6996377e-08
1.0490103e-08
2.5803572e-09
5.4401038e-10
9.4290254e-11
1.2749605e-11
1.8067177e-12
9.9392729e-13
1.0454622e-12
0.0010451704
0.00024452429
0.00097771884
0.0010558331
0.00057982276
0.00020943173
0.00010708496
6.6472473e-05
4.0050654e-05
2.2451268e-05
1.3408007e-05
9.5537309e-06
7.3181121e-06
4.0570413e-06
3.356105e-06
2.4328472e-06
1.5737962e-06
9.7648547e-07
5.6782919e-07
2.8500816e-07
1.1188471e-07
3.6949786e-08
1.047563e-08
2.5765729e-09
5.4317847e-10
9.41419e-11
1.272943e-11
1.8042091e-12
9.9280686e-13
1.0442797e-12
0.0010458065
0.0002445885
0.00097799765
0.0010556869
0.00058138884
0.00021023332
0.00010740155
6.6586621e-05
4.010088e-05
2.2467223e-05
1.3400394e-05
9.5375438e-06
7.3051213e-06
4.0530515e-06
3.3561658e-06
2.4326028e-06
1.5733347e-06
9.7600294e-07
5.6744631e-07
2.8474869e-07
1.117614e-07
3.6903233e-08
1.0461179e-08
2.572796e-09
5.4234843e-10
9.3993916e-11
1.2709331e-11
1.8017365e-12
9.9172134e-13
1.0431327e-12
0.0010464465
0.00024463506
0.00097827536
0.0010555341
0.00058284932
0.00021103639
0.00010771773
6.6699904e-05
4.015058e-05
2.248283e-05
1.3392768e-05
9.5214509e-06
7.2923155e-06
4.0491878e-06
3.3562538e-06
2.4323788e-06
1.5728823e-06
9.7552549e-07
5.6706639e-07
2.8449093e-07
1.1163896e-07
3.6857026e-08
1.044684e-08
2.5690491e-09
5.4152496e-10
9.3847122e-11
1.2689429e-11
1.7993255e-12
9.9068939e-13
1.0420398e-12
0.0010470906
0.00024466768
0.0009785522
0.0010553743
0.00058423179
0.00021184326
0.00010803464
6.6812555e-05
4.0199864e-05
2.2498141e-05
1.3385127e-05
9.5054527e-06
7.2796733e-06
4.045442e-06
3.356369e-06
2.4321761e-06
1.5724413e-06
9.7505557e-07
5.6669154e-07
2.8423649e-07
1.1151823e-07
3.6811512e-08
1.0432726e-08
2.5653618e-09
5.4071469e-10
9.3702687e-11
1.2669864e-11
1.7969769e-12
9.8969992e-13
1.0409904e-12
0.0010477388
0.00024468916
0.00097882833
0.0010552068
0.00058555986
0.00021265615
0.00010835329
6.6924867e-05
4.0248843e-05
2.2513202e-05
1.3377454e-05
9.4895354e-06
7.2671775e-06
4.041807e-06
3.3565114e-06
2.4319929e-06
1.5720102e-06
9.7459156e-07
5.6632037e-07
2.8398464e-07
1.1139876e-07
3.6766482e-08
1.0418761e-08
2.5617129e-09
5.3991267e-10
9.3559716e-11
1.265051e-11
1.794668e-12
9.8873755e-13
1.0399689e-12
0.001048391
0.00024470156
0.0009791039
0.0010550311
0.00058684512
0.00021347632
0.0001086745
6.7036965e-05
4.02975e-05
2.2528028e-05
1.3369744e-05
9.4736846e-06
7.2548128e-06
4.038276e-06
3.3566797e-06
2.4318285e-06
1.5715887e-06
9.7413332e-07
5.6595281e-07
2.8373529e-07
1.1128058e-07
3.6721963e-08
1.0404959e-08
2.5581067e-09
5.3911995e-10
9.3418377e-11
1.2631382e-11
1.7923964e-12
9.8779879e-13
1.0389716e-12
0.0010490473
0.00024470674
0.00097937899
0.0010548467
0.00058809772
0.0002143051
0.00010899898
6.7149038e-05
4.0345855e-05
2.2542598e-05
1.3361966e-05
9.4578901e-06
7.2425684e-06
4.0348436e-06
3.3568735e-06
2.4316817e-06
1.5711762e-06
9.7368012e-07
5.6558817e-07
2.8348802e-07
1.1116343e-07
3.667785e-08
1.0391283e-08
2.5545333e-09
5.3833426e-10
9.3278262e-11
1.2612423e-11
1.7901525e-12
9.8687742e-13
1.0379923e-12
0.0010497076
0.00024470644
0.00097965369
0.0010546532
0.0005893304
0.0002151442
0.00010932736
6.7261341e-05
4.0393939e-05
2.2556903e-05
1.3354092e-05
9.4421328e-06
7.230435e-06
4.0315049e-06
3.357092e-06
2.4315535e-06
1.5707736e-06
9.732325e-07
5.6522663e-07
2.8324266e-07
1.1104727e-07
3.6634141e-08
1.0377739e-08
2.5509946e-09
5.375561e-10
9.3139454e-11
1.2593637e-11
1.7879313e-12
9.8596763e-13
1.0370251e-12
0.0010503719
0.00024470169
0.00097992808
0.0010544501
0.00059055365
0.000215995
0.0001096601
6.7373917e-05
4.0441689e-05
2.2570957e-05
1.3346131e-05
9.4264104e-06
7.2184056e-06
4.0282559e-06
3.3573348e-06
2.4314415e-06
1.5703796e-06
9.7278962e-07
5.6486753e-07
2.829985e-07
1.1093162e-07
3.6590612e-08
1.036425e-08
2.54747e-09
5.3678105e-10
9.3001217e-11
1.257494e-11
1.7857306e-12
9.8507347e-13
1.036074e-12
0.0010510401
0.00024469334
0.00098020219
0.001054237
0.00059177415
0.00021685905
0.00010999779
6.748699e-05
4.0489141e-05
2.2584766e-05
1.3338096e-05
9.4107358e-06
7.2064768e-06
4.0250945e-06
3.3576022e-06
2.4313459e-06
1.5699953e-06
9.7235283e-07
5.6451209e-07
2.8275646e-07
1.1081696e-07
3.654747e-08
1.0350882e-08
2.543977e-09
5.3601279e-10
9.2864155e-11
1.2556401e-11
1.7835548e-12
9.8419461e-13
1.0351387e-12
0.0010517122
0.00024468236
0.00098047605
0.0010540136
0.00059299649
0.00021773808
0.00011034101
6.7600826e-05
4.0536354e-05
2.2598308e-05
1.3329971e-05
9.3951079e-06
7.1946454e-06
4.0220188e-06
3.3578941e-06
2.4312662e-06
1.5696208e-06
9.7192217e-07
5.6416027e-07
2.8251651e-07
1.1070325e-07
3.6504676e-08
1.0337621e-08
2.5405109e-09
5.3525026e-10
9.272809e-11
1.2538001e-11
1.7814028e-12
9.8333119e-13
1.0342193e-12
0.0010523879
0.00024466963
0.00098074966
0.0010537794
0.00059422691
0.00021863359
0.00011069019
6.7715462e-05
4.0583293e-05
2.2611559e-05
1.3321743e-05
9.3795302e-06
7.1829125e-06
4.0190277e-06
3.3582106e-06
2.4312043e-06
1.5692579e-06
9.7149904e-07
5.6381299e-07
2.8227909e-07
1.1059075e-07
3.6462352e-08
1.0324507e-08
2.5370838e-09
5.3449613e-10
9.2593477e-11
1.2519792e-11
1.7792749e-12
9.8247944e-13
1.033312e-12
0.0010530672
0.0002446557
0.00098102304
0.0010535342
0.0005954748
0.00021954731
0.00011104591
6.7831083e-05
4.0629986e-05
2.2624531e-05
1.3313419e-05
9.364004e-06
7.1712785e-06
4.0161198e-06
3.3585517e-06
2.4311585e-06
1.5689054e-06
9.710826e-07
5.6346958e-07
2.820435e-07
1.1047897e-07
3.642027e-08
1.0311466e-08
2.5336748e-09
5.3374602e-10
9.2459607e-11
1.2501693e-11
1.7771661e-12
9.8163961e-13
1.0324172e-12
0.0010537499
0.00024464114
0.00098129618
0.0010532777
0.00059674861
0.00022048062
0.00011140869
6.7947881e-05
4.0676456e-05
2.2637234e-05
1.3305004e-05
9.3485349e-06
7.1597425e-06
4.0132943e-06
3.3589172e-06
2.4311282e-06
1.5685642e-06
9.7067411e-07
5.6313127e-07
2.8181069e-07
1.1036841e-07
3.6378635e-08
1.029856e-08
2.5303005e-09
5.3300333e-10
9.232701e-11
1.2483761e-11
1.7750797e-12
9.8081156e-13
1.0315345e-12
0.0010544358
0.00024462668
0.00098156909
0.0010530095
0.00059805407
0.00022143443
0.00011177901
6.8065973e-05
4.0722723e-05
2.2649658e-05
1.3296497e-05
9.3331336e-06
7.1483094e-06
4.010551e-06
3.3593072e-06
2.4311127e-06
1.5682336e-06
9.702734e-07
5.6279806e-07
2.8158072e-07
1.1025905e-07
3.6337419e-08
1.0285777e-08
2.5269572e-09
5.3226718e-10
9.2195548e-11
1.2465986e-11
1.7730185e-12
9.7999882e-13
1.0306676e-12
0.0010551246
0.00024461294
0.00098184177
0.0010527294
0.00059939692
0.00022241017
0.00011215745
6.8185674e-05
4.0768851e-05
2.2661773e-05
1.3287874e-05
9.3177903e-06
7.1369815e-06
4.0078895e-06
3.3597214e-06
2.431113e-06
1.5679149e-06
9.6988131e-07
5.6247066e-07
2.8135416e-07
1.1015127e-07
3.6296793e-08
1.0273175e-08
2.5236604e-09
5.3154099e-10
9.2065799e-11
1.2448433e-11
1.7709831e-12
9.7919696e-13
1.029812e-12
0.0010558162
0.00024460026
0.0009821142
0.0010524374
0.00060078194
0.000223409
0.00011254445
6.8307178e-05
4.0814869e-05
2.2673573e-05
1.3279126e-05
9.3024974e-06
7.1257592e-06
4.0053091e-06
3.3601597e-06
2.4311271e-06
1.567606e-06
9.6949649e-07
5.6214803e-07
2.8113016e-07
1.1004455e-07
3.6256526e-08
1.0260678e-08
2.52039e-09
5.3082063e-10
9.1937118e-11
1.2431034e-11
1.7689699e-12
9.7840668e-13
1.0289684e-12
0.0010565104
0.00024458893
0.00098238643
0.0010521333
0.00060221514
0.0002244316
0.00011294034
6.8430527e-05
4.0860754e-05
2.2685054e-05
1.3270255e-05
9.2872679e-06
7.1146454e-06
4.0028106e-06
3.3606225e-06
2.4311545e-06
1.5673073e-06
9.6911944e-07
5.6183085e-07
2.8090947e-07
1.0993932e-07
3.6216795e-08
1.0248341e-08
2.5171602e-09
5.3010884e-10
9.1809891e-11
1.2413817e-11
1.7669734e-12
9.7762022e-13
1.028129e-12
0.0010572068
0.00024457943
0.00098265847
0.0010518173
0.00060370695
0.00022547924
0.00011334561
6.8555939e-05
4.0906515e-05
2.2696194e-05
1.3261245e-05
9.272097e-06
7.1036451e-06
4.0003938e-06
3.3611091e-06
2.4311937e-06
1.5670174e-06
9.6874913e-07
5.6151847e-07
2.806917e-07
1.0983534e-07
3.6177498e-08
1.0236129e-08
2.5139609e-09
5.294034e-10
9.1683747e-11
1.2396742e-11
1.7649948e-12
9.7684222e-13
1.0272983e-12
0.0010579053
0.00024457234
0.00098293038
0.0010514894
0.00060526629
0.00022655338
0.00011376085
6.8683656e-05
4.0952187e-05
2.270699e-05
1.325208e-05
9.2569635e-06
7.0927599e-06
3.9980585e-06
3.3616195e-06
2.4312461e-06
1.5667368e-06
9.6838594e-07
5.6121132e-07
2.8047731e-07
1.0973298e-07
3.6138807e-08
1.0224101e-08
2.5108087e-09
5.2870793e-10
9.1559297e-11
1.2379879e-11
1.7630335e-12
9.7606633e-13
1.02647e-12
0.0010586054
0.00024456805
0.0009832022
0.00105115
0.00060689666
0.00022765531
0.00011418657
6.881384e-05
4.0997785e-05
2.2717415e-05
1.3242754e-05
9.2418713e-06
7.0819912e-06
3.995805e-06
3.3621543e-06
2.4313099e-06
1.5664633e-06
9.6802782e-07
5.6090764e-07
2.8026495e-07
1.0963145e-07
3.6100402e-08
1.0212157e-08
2.5076774e-09
5.2801714e-10
9.1435716e-11
1.2363137e-11
1.7610837e-12
9.752923e-13
1.0256441e-12
0.001059307
0.00024456687
0.00098347399
0.0010507994
0.00060860108
0.00022878631
0.00011462328
6.8946724e-05
4.1043345e-05
2.2727443e-05
1.3233255e-05
9.226826e-06
7.0713408e-06
3.9936341e-06
3.3627137e-06
2.4313848e-06
1.5661973e-06
9.676752e-07
5.6060796e-07
2.8005528e-07
1.095312e-07
3.6062469e-08
1.0200356e-08
2.5045827e-09
5.2733411e-10
9.1313449e-11
1.2346554e-11
1.7591417e-12
9.7451411e-13
1.0248142e-12
0.0010600097
0.000244569
0.00098374582
0.001050438
0.00061038231
0.00022994733
0.00011507151
6.9082442e-05
4.1088896e-05
2.2737071e-05
1.322357e-05
9.2118154e-06
7.0608096e-06
3.991546e-06
3.3632978e-06
2.4314705e-06
1.5659379e-06
9.6732716e-07
5.6031145e-07
2.798477e-07
1.0943186e-07
3.6024854e-08
1.0188647e-08
2.5015107e-09
5.2665587e-10
9.1192007e-11
1.2330077e-11
1.7572086e-12
9.7373677e-13
1.0239854e-12
0.0010607133
0.00024457452
0.00098401776
0.0010500665
0.00061224211
0.00023113948
0.00011553171
6.9221099e-05
4.1134469e-05
2.2746304e-05
1.3213683e-05
9.1968294e-06
7.0504e-06
3.989541e-06
3.3639068e-06
2.4315698e-06
1.5656867e-06
9.6698451e-07
5.6001857e-07
2.7964257e-07
1.0933372e-07
3.5987703e-08
1.0177082e-08
2.4984758e-09
5.2598543e-10
9.107187e-11
1.2313754e-11
1.7552812e-12
9.7295357e-13
1.0231508e-12
0.0010614173
0.00024458353
0.00098428991
0.0010496855
0.00061418555
0.00023236417
0.00011600439
6.9362975e-05
4.1180107e-05
2.2755113e-05
1.3203578e-05
9.1818613e-06
7.0401126e-06
3.9876189e-06
3.3645415e-06
2.4316817e-06
1.5654422e-06
9.6664568e-07
5.5972789e-07
2.7943842e-07
1.0923591e-07
3.5950643e-08
1.0165541e-08
2.4954469e-09
5.2531658e-10
9.0952093e-11
1.2297489e-11
1.7533599e-12
9.7217118e-13
1.0223175e-12
0.0010621216
0.00024459619
0.00098456238
0.0010492957
0.00061621816
0.00023362266
0.00011649004
6.9508244e-05
4.1225811e-05
2.2763469e-05
1.3193249e-05
9.1669199e-06
7.0299483e-06
3.9857805e-06
3.3652024e-06
2.4318067e-06
1.5652057e-06
9.6631219e-07
5.5944076e-07
2.7923657e-07
1.0913915e-07
3.5913971e-08
1.0154117e-08
2.4924478e-09
5.2465395e-10
9.0833342e-11
1.2281346e-11
1.7514457e-12
9.7138704e-13
1.0214825e-12
0.0010628259
0.0002446124
0.00098483527
0.0010488979
0.00061834263
0.0002349159
0.00011698902
6.9656979e-05
4.1271603e-05
2.2771372e-05
1.3182694e-05
9.1520085e-06
7.0199067e-06
3.9840261e-06
3.3658901e-06
2.4319451e-06
1.5649771e-06
9.6598387e-07
5.5915696e-07
2.790367e-07
1.0904323e-07
3.5877585e-08
1.0142775e-08
2.4894685e-09
5.2399548e-10
9.0715309e-11
1.2265299e-11
1.7495423e-12
9.7060702e-13
1.0206518e-12
0.0010635298
0.00024463154
0.00098510865
0.0010484931
0.00062056009
0.00023624415
0.00011750171
6.9809381e-05
4.1317532e-05
2.2778821e-05
1.3171893e-05
9.1371077e-06
7.0099863e-06
3.9823557e-06
3.366605e-06
2.4321e-06
1.5647586e-06
9.6566212e-07
5.5887745e-07
2.7883956e-07
1.0894862e-07
3.5841701e-08
1.0131587e-08
2.4865287e-09
5.2334524e-10
9.0598644e-11
1.2249413e-11
1.7476476e-12
9.6982388e-13
1.0198182e-12
0.001064233
0.00024465301
0.00098538262
0.0010480822
0.00062287018
0.00023760824
0.00011802857
6.9965603e-05
4.1363639e-05
2.2785838e-05
1.3160845e-05
9.1222113e-06
7.0001846e-06
3.980769e-06
3.3673483e-06
2.4322702e-06
1.5645485e-06
9.6534515e-07
5.5860063e-07
2.7864356e-07
1.0885438e-07
3.5805916e-08
1.0120425e-08
2.4835954e-09
5.2269677e-10
9.0482387e-11
1.2233598e-11
1.7457628e-12
9.690447e-13
1.0189891e-12
0.0010649354
0.00024467627
0.00098565729
0.0010476663
0.00062527295
0.000239009
0.00011856995
7.0125703e-05
4.1409921e-05
2.2792423e-05
1.314956e-05
9.1073358e-06
6.9904999e-06
3.9792662e-06
3.3681205e-06
2.4324556e-06
1.5643477e-06
9.6503427e-07
5.5832784e-07
2.7845013e-07
1.0876131e-07
3.5770561e-08
1.0109393e-08
2.4806946e-09
5.2205508e-10
9.0367244e-11
1.2217914e-11
1.7438852e-12
9.6826333e-13
1.0181579e-12
0.0010656365
0.00024470164
0.00098593274
0.0010472463
0.00062776986
0.00024044614
0.00011912587
7.0289855e-05
4.1456398e-05
2.2798532e-05
1.3138015e-05
9.0924819e-06
6.9809329e-06
3.9778472e-06
3.3689221e-06
2.4326565e-06
1.5641559e-06
9.6472904e-07
5.5805859e-07
2.7825873e-07
1.0866908e-07
3.573548e-08
1.0098436e-08
2.4778124e-09
5.2141723e-10
9.025277e-11
1.220232e-11
1.7420186e-12
9.6748649e-13
1.0173314e-12
0.0010663361
0.00024473112
0.00098620905
0.001046823
0.00063035944
0.00024191878
0.00011969623
7.0458128e-05
4.1503103e-05
2.2804157e-05
1.3126202e-05
9.0776404e-06
6.9714825e-06
3.9765119e-06
3.3697535e-06
2.4328763e-06
1.5639751e-06
9.644309e-07
5.5779382e-07
2.7807016e-07
1.0857818e-07
3.5700909e-08
1.0087635e-08
2.4749695e-09
5.2078752e-10
9.0139625e-11
1.218688e-11
1.7401596e-12
9.6670627e-13
1.0165016e-12
0.001067034
0.0002447628
0.00098648628
0.0010463975
0.0006330383
0.00024342573
0.00012028081
7.0630487e-05
4.1550035e-05
2.280933e-05
1.3114135e-05
9.0628208e-06
6.9621459e-06
3.97526e-06
3.3706158e-06
2.4331137e-06
1.5638042e-06
9.6413828e-07
5.5753214e-07
2.7788285e-07
1.0848769e-07
3.5666434e-08
1.0076858e-08
2.4721323e-09
5.2015933e-10
9.0026843e-11
1.2171505e-11
1.7383108e-12
9.6593077e-13
1.015677e-12
0.0010677299
0.00024479635
0.00098676447
0.0010459706
0.0006358083
0.00024496552
0.0001208793
7.0807051e-05
4.1597255e-05
2.2814084e-05
1.310183e-05
9.0480323e-06
6.952921e-06
3.9740916e-06
3.3715094e-06
2.433369e-06
1.563644e-06
9.6385269e-07
5.5727499e-07
2.776984e-07
1.0839846e-07
3.5632416e-08
1.0066214e-08
2.4693281e-09
5.1953787e-10
8.9915139e-11
1.2156253e-11
1.7364685e-12
9.6515318e-13
1.0148505e-12
0.0010684236
0.00024483197
0.00098704366
0.0010455432
0.00063867611
0.00024653688
0.0001214912
7.0987899e-05
4.1644813e-05
2.2818405e-05
1.3089278e-05
9.0332721e-06
6.9438049e-06
3.9730062e-06
3.372435e-06
2.4336424e-06
1.5634943e-06
9.6357365e-07
5.5702192e-07
2.775163e-07
1.0831018e-07
3.559871e-08
1.0055656e-08
2.4665442e-09
5.1892052e-10
8.9804132e-11
1.2141094e-11
1.7346383e-12
9.6438153e-13
1.01403e-12
0.0010691149
0.00024486968
0.00098732387
0.0010451164
0.0006416421
0.00024813833
0.00012211611
7.1172943e-05
4.1692681e-05
2.2822283e-05
1.3076483e-05
9.0185451e-06
6.934795e-06
3.9720039e-06
3.3733931e-06
2.4339376e-06
1.5633575e-06
9.6330276e-07
5.56774e-07
2.7733741e-07
1.0822343e-07
3.5565582e-08
1.0045275e-08
2.4638048e-09
5.1831239e-10
8.9694638e-11
1.2126112e-11
1.7328178e-12
9.6360675e-13
1.0132065e-12
0.0010698035
0.00024490932
0.00098760506
0.0010446912
0.00064469974
0.00024976824
0.00012275365
7.1362153e-05
4.1740849e-05
2.282574e-05
1.3063469e-05
9.0038668e-06
6.9258877e-06
3.9710839e-06
3.3743849e-06
2.4342533e-06
1.5632319e-06
9.6303818e-07
5.5652955e-07
2.7715995e-07
1.0813714e-07
3.5532579e-08
1.0034926e-08
2.4610736e-09
5.1770639e-10
8.9585623e-11
1.2111211e-11
1.7310082e-12
9.6283623e-13
1.0123879e-12
0.0010704893
0.00024495059
0.00098788719
0.0010442685
0.0006478424
0.00025142471
0.00012340339
7.1555517e-05
4.1789371e-05
2.282882e-05
1.3050261e-05
8.9892558e-06
6.9170801e-06
3.9702462e-06
3.3754109e-06
2.4345892e-06
1.5631188e-06
9.6278156e-07
5.5629013e-07
2.7698555e-07
1.0805221e-07
3.5500069e-08
1.0024724e-08
2.4583793e-09
5.1710807e-10
8.9477872e-11
1.2096458e-11
1.7292065e-12
9.6206282e-13
1.0115666e-12
0.001071172
0.00024499327
0.00098817017
0.0010438492
0.00065106159
0.00025310561
0.00012406484
7.175292e-05
4.1838266e-05
2.2831547e-05
1.3036869e-05
8.9747163e-06
6.908369e-06
3.9694905e-06
3.3764715e-06
2.4349458e-06
1.5630179e-06
9.6253246e-07
5.5605528e-07
2.7681366e-07
1.0796829e-07
3.5467885e-08
1.0014612e-08
2.4557067e-09
5.1651421e-10
8.9370889e-11
1.2081808e-11
1.7274171e-12
9.6129448e-13
1.0107505e-12
0.0010718514
0.00024503773
0.00098845389
0.0010434341
0.00065434878
0.00025480985
0.00012473771
7.1954299e-05
4.1887472e-05
2.28339e-05
1.3023292e-05
8.9602499e-06
6.8997512e-06
3.9688165e-06
3.3775672e-06
2.4353264e-06
1.5629316e-06
9.6229251e-07
5.5582613e-07
2.7664523e-07
1.0788597e-07
3.54363e-08
1.0004682e-08
2.4530797e-09
5.1592983e-10
8.9265464e-11
1.2067341e-11
1.7256375e-12
9.6052277e-13
1.0099312e-12
0.0010725275
0.00024508427
0.0009887382
0.0010430237
0.00065769345
0.00025653555
0.00012542147
7.2159628e-05
4.1936986e-05
2.2835891e-05
1.300955e-05
8.9458731e-06
6.8912248e-06
3.968224e-06
3.3786992e-06
2.4357297e-06
1.5628581e-06
9.620599e-07
5.5560104e-07
2.7647852e-07
1.0780421e-07
3.5404867e-08
9.9947898e-09
2.4504619e-09
5.1534769e-10
8.9160526e-11
1.2052955e-11
1.7238689e-12
9.5975546e-13
1.0091169e-12
0.0010732
0.00024513261
0.00098902293
0.0010426186
0.00066107976
0.00025827863
0.00012611514
7.2368714e-05
4.198687e-05
2.2837582e-05
1.2995683e-05
8.9316111e-06
6.8827897e-06
3.9677131e-06
3.3798677e-06
2.4361555e-06
1.5627987e-06
9.6183627e-07
5.5538159e-07
2.7631519e-07
1.0772394e-07
3.5373965e-08
9.9850543e-09
2.4478833e-09
5.1477362e-10
8.9056906e-11
1.2038722e-11
1.7221087e-12
9.5898541e-13
1.0082999e-12
0.0010738688
0.00024518241
0.00098930786
0.001042219
0.0006644941
0.00026003494
0.00012681777
7.2581467e-05
4.2037141e-05
2.2838997e-05
1.2981702e-05
8.9174713e-06
6.8744445e-06
3.9672836e-06
3.3810735e-06
2.4366039e-06
1.562753e-06
9.6162112e-07
5.5516729e-07
2.761547e-07
1.0764482e-07
3.534344e-08
9.9754239e-09
2.4453298e-09
5.1420478e-10
8.8954185e-11
1.2024609e-11
1.7203625e-12
9.5822108e-13
1.0074889e-12
0.0010745337
0.00024523387
0.00098959278
0.0010418249
0.00066792745
0.00026180034
0.00012752848
7.27979e-05
4.2087813e-05
2.2840139e-05
1.2967615e-05
8.9034497e-06
6.8661877e-06
3.9669355e-06
3.3823165e-06
2.4370783e-06
1.5627232e-06
9.6141591e-07
5.5495909e-07
2.7599785e-07
1.0756737e-07
3.5313543e-08
9.9659838e-09
2.4428245e-09
5.1364598e-10
8.8853129e-11
1.2010692e-11
1.718626e-12
9.5745198e-13
1.0066733e-12
0.0010751947
0.00024528721
0.00098987747
0.0010414366
0.00067138402
0.00026357083
0.00012824599
7.3017906e-05
4.2138878e-05
2.2841033e-05
1.2953441e-05
8.8895588e-06
6.8580174e-06
3.9666685e-06
3.3835977e-06
2.4375773e-06
1.5627076e-06
9.6121873e-07
5.5475527e-07
2.758428e-07
1.0749051e-07
3.5283802e-08
9.9565841e-09
2.4403289e-09
5.1308953e-10
8.8752579e-11
1.1996859e-11
1.716901e-12
9.5668751e-13
1.0058629e-12
0.0010758516
0.00024534224
0.00099016171
0.0010410538
0.00067487489
0.00026534301
0.00012896904
7.324131e-05
4.2190337e-05
2.2841717e-05
1.2939221e-05
8.8758272e-06
6.8499341e-06
3.9664831e-06
3.3849171e-06
2.4381006e-06
1.5627075e-06
9.6103138e-07
5.5455752e-07
2.756913e-07
1.074152e-07
3.5254619e-08
9.9473491e-09
2.4378748e-09
5.1254175e-10
8.865346e-11
1.1983197e-11
1.7151864e-12
9.5592121e-13
1.0050509e-12
0.0010765043
0.00024539871
0.00099044527
0.0010406766
0.00067839265
0.00026711294
0.0001296968
7.3468097e-05
4.2242242e-05
2.2842223e-05
1.2924969e-05
8.8622603e-06
6.8419371e-06
3.9663791e-06
3.3862749e-06
2.438648e-06
1.5627226e-06
9.608533e-07
5.543653e-07
2.7554277e-07
1.0734109e-07
3.5225824e-08
9.9382227e-09
2.4354467e-09
5.1199939e-10
8.8555277e-11
1.1969658e-11
1.7134859e-12
9.5516012e-13
1.0042443e-12
0.0010771528
0.00024545621
0.00099072789
0.0010403053
0.00068191516
0.00026887745
0.00013042881
7.3698155e-05
4.2294626e-05
2.2842583e-05
1.291069e-05
8.848854e-06
6.8340266e-06
3.9663563e-06
3.3876707e-06
2.4392227e-06
1.562755e-06
9.6068628e-07
5.5417977e-07
2.7539807e-07
1.0726869e-07
3.5197664e-08
9.9292875e-09
2.4330671e-09
5.114671e-10
8.8458767e-11
1.1956318e-11
1.7117959e-12
9.5439512e-13
1.003434e-12
0.001077797
0.0002455147
0.00099100935
0.0010399398
0.00068542975
0.00027063407
0.00013116468
7.3931446e-05
4.234746e-05
2.2842804e-05
1.2896405e-05
8.8356232e-06
6.8262027e-06
3.9664147e-06
3.389105e-06
2.4398232e-06
1.5628033e-06
9.6052861e-07
5.539994e-07
2.7525556e-07
1.0719702e-07
3.5169705e-08
9.9204039e-09
2.4306995e-09
5.1093758e-10
8.8362813e-11
1.1943065e-11
1.7101181e-12
9.536355e-13
1.0026296e-12
0.0010784367
0.00024557497
0.00099128943
0.0010395802
0.00068892583
0.0002723817
0.00013190433
7.4167988e-05
4.2400739e-05
2.2842911e-05
1.2882144e-05
8.8225879e-06
6.818467e-06
3.9665544e-06
3.3905771e-06
2.4404485e-06
1.5628684e-06
9.6038197e-07
5.5382591e-07
2.7511698e-07
1.0712705e-07
3.5142343e-08
9.9116943e-09
2.4283751e-09
5.1041697e-10
8.8268323e-11
1.1929986e-11
1.7084513e-12
9.528745e-13
1.0018241e-12
0.0010790719
0.00024563734
0.0009915679
0.0010392261
0.00069239312
0.00027411923
0.00013264741
7.4407603e-05
4.2454491e-05
2.2842961e-05
1.286792e-05
8.8097472e-06
6.8108202e-06
3.9667752e-06
3.3920867e-06
2.4410982e-06
1.5629498e-06
9.6024574e-07
5.5365871e-07
2.7498177e-07
1.0705842e-07
3.5115423e-08
9.9031077e-09
2.4260802e-09
5.0990243e-10
8.8174865e-11
1.1917042e-11
1.7068002e-12
9.5211973e-13
1.0010249e-12
0.0010797026
0.00024570114
0.00099184454
0.0010388775
0.00069581994
0.00027584392
0.00013339329
7.4650194e-05
4.2508691e-05
2.2842967e-05
1.2853735e-05
8.7970921e-06
6.8032637e-06
3.9670766e-06
3.3936325e-06
2.4417748e-06
1.5630493e-06
9.601215e-07
5.5349895e-07
2.7485076e-07
1.0699168e-07
3.5089198e-08
9.8947307e-09
2.4238384e-09
5.0939903e-10
8.8083276e-11
1.1904323e-11
1.7051619e-12
9.5136121e-13
1.0002223e-12
0.0010803288
0.00024576602
0.00099211911
0.0010385337
0.00069919362
0.00027755299
0.00013414169
7.4895832e-05
4.2563344e-05
2.2842934e-05
1.2839602e-05
8.7846293e-06
6.7957988e-06
3.9674583e-06
3.3952144e-06
2.4424757e-06
1.5631647e-06
9.6000705e-07
5.5334479e-07
2.7472216e-07
1.0692577e-07
3.5063208e-08
9.8864161e-09
2.4216115e-09
5.0889907e-10
8.7992373e-11
1.1891711e-11
1.7035372e-12
9.5060808e-13
9.9942565e-13
0.0010809504
0.00024583232
0.00099239145
0.0010381943
0.00070250622
0.0002792438
0.00013489237
7.5144469e-05
4.2618487e-05
2.2842908e-05
1.2825553e-05
8.7723772e-06
6.788428e-06
3.9679205e-06
3.3968311e-06
2.4431994e-06
1.5632965e-06
9.5990386e-07
5.5319782e-07
2.7459769e-07
1.0686165e-07
3.5037857e-08
9.8782905e-09
2.4194323e-09
5.0840914e-10
8.7903149e-11
1.18793e-11
1.7019248e-12
9.4985238e-13
9.9862669e-13
0.0010815674
0.00024589999
0.00099266139
0.0010378588
0.00070576179
0.00028091391
0.0001356448
7.5396303e-05
4.2674136e-05
2.2842914e-05
1.2811592e-05
8.7603349e-06
6.7811533e-06
3.9684628e-06
3.3984815e-06
2.4439445e-06
1.5634437e-06
9.5981099e-07
5.5305728e-07
2.7447667e-07
1.0679891e-07
3.5012961e-08
9.8702923e-09
2.4172839e-09
5.0792563e-10
8.7815035e-11
1.1867037e-11
1.7003293e-12
9.4910293e-13
9.9783418e-13
0.0010821797
0.00024596819
0.00099292881
0.0010375265
0.00070897289
0.00028256323
0.00013639854
7.5651415e-05
4.2730277e-05
2.2842934e-05
1.2797718e-05
8.7484974e-06
6.7739767e-06
3.9690853e-06
3.4001641e-06
2.4447136e-06
1.5636078e-06
9.5972988e-07
5.5292432e-07
2.7436006e-07
1.0673817e-07
3.4988805e-08
9.8625187e-09
2.4151929e-09
5.0745423e-10
8.7728957e-11
1.185502e-11
1.6987478e-12
9.4834944e-13
9.9703799e-13
0.0010827875
0.00024603636
0.00099319356
0.0010371971
0.00071213764
0.00028419229
0.00013715589
7.5909557e-05
4.2786921e-05
2.2842999e-05
1.2783944e-05
8.736867e-06
6.7668989e-06
3.9697877e-06
3.4018783e-06
2.4455037e-06
1.5637862e-06
9.5965798e-07
5.5279682e-07
2.7424581e-07
1.0667825e-07
3.4964882e-08
9.8548068e-09
2.4131167e-09
5.0698629e-10
8.7643582e-11
1.1843113e-11
1.6971811e-12
9.4760205e-13
9.9624852e-13
0.0010833905
0.00024610426
0.00099345554
0.0010368703
0.00071524956
0.00028580001
0.00013791608
7.6170763e-05