/*--------------------------------*- C++ -*----------------------------------*\
| =========                 |                                                 |
| \\      /  F ield         | OpenFOAM: The Open Source CFD Toolbox           |
|  \\    /   O peration     | Version:  v2012                                 |
|   \\  /    A nd           | Website:  www.openfoam.com                      |
|    \\/     M anipulation  |                                                 |
\*---------------------------------------------------------------------------*/
FoamFile
{
    version     2.0;
    format      ascii;
    class       volScalarField;
    location    "150";
    object      k;
}
// * * * * * * * * * * * * * * * * * * * * * * * * * * * * * * * * * * * * * //

dimensions      [0 2 -2 0 0 0 0];


internalField   nonuniform List<scalar> 
24000
(
0.09305809
0.099811238
0.094447417
0.093313244
0.09402757
0.097307392
0.10518606
0.11438966
0.1243829
0.13806308
0.15118152
0.15201599
0.14310591
0.19002361
0.34867446
0.54402259
0.64931705
0.62510826
0.49955279
0.33428483
0.19012016
0.096096093
0.04443765
0.018959695
0.0073776304
0.0025414058
0.00075442981
0.00026413518
0.00048237338
0.0034486041
0.093039663
0.099781988
0.094415603
0.093279284
0.093981012
0.097218258
0.10501901
0.11413823
0.1239595
0.13729411
0.1499662
0.15064287
0.14124313
0.18508596
0.3411448
0.53625937
0.6443318
0.62421198
0.50156055
0.33681569
0.19226511
0.097511599
0.045218525
0.019332436
0.0075353628
0.0026034889
0.00078479268
0.00030475755
0.00062392517
0.0044562799
0.093030777
0.099767825
0.094399015
0.09326248
0.093961448
0.097163855
0.10491764
0.11398903
0.12372045
0.13689462
0.14944441
0.15018584
0.14069169
0.18399752
0.33926727
0.53499024
0.64528194
0.6281221
0.50779224
0.34395453
0.19753763
0.10055365
0.046718782
0.019991656
0.0077938189
0.0026900742
0.00080449963
0.00029580827
0.0005714656
0.0040805224
0.093022633
0.099755638
0.094384824
0.093247841
0.09394362
0.097121274
0.1048327
0.11386592
0.12353791
0.13660398
0.14904848
0.14979983
0.14045638
0.18357959
0.33925277
0.53512309
0.64536871
0.62778618
0.50670763
0.342262
0.19599974
0.099542188
0.046177423
0.019741578
0.007692657
0.0026551763
0.00079548072
0.00029640597
0.0005811135
0.0041495135
0.093014606
0.099744107
0.094371308
0.093234327
0.093927417
0.09708202
0.10474828
0.11374545
0.12336017
0.13631075
0.14862897
0.14936517
0.14012472
0.18349792
0.33934041
0.53512205
0.64520882
0.62751515
0.50645228
0.34213315
0.19596549
0.099539286
0.046179543
0.019742948
0.0076930869
0.0026551544
0.00079521893
0.00029570137
0.00057846479
0.0041306772
0.093006584
0.099733287
0.094359008
0.093221937
0.093912097
0.09704475
0.10466527
0.1136269
0.12318443
0.1360183
0.14821067
0.14893175
0.13979275
0.18342632
0.33948691
0.53520037
0.64507204
0.62716987
0.50600514
0.34170996
0.19566459
0.099363758
0.04609058
0.019702649
0.0076767606
0.0026493874
0.00079352444
0.00029525135
0.00057800016
0.0041274194
0.092998553
0.099722939
0.09434764
0.093210369
0.093897253
0.097008409
0.10458226
0.11350815
0.12300806
0.13572558
0.14779231
0.14849977
0.13946246
0.18335694
0.33963341
0.53526807
0.64491954
0.62681861
0.50557536
0.34132673
0.19540377
0.099216211
0.046017233
0.019669765
0.0076634861
0.0026446813
0.00079209865
0.00029476231
0.00057716319
0.0041215181
0.092990496
0.099712974
0.094336992
0.093199371
0.093882636
0.096972624
0.10449888
0.11338888
0.12283125
0.1354331
0.14737534
0.14807213
0.13913829
0.18328726
0.33977035
0.53532288
0.64475629
0.62646122
0.50514252
0.34094056
0.19514033
0.09906678
0.045942768
0.019636321
0.0076499715
0.0026398911
0.00079065681
0.00029429439
0.00057642551
0.00411632
0.092982405
0.099703291
0.094326851
0.093188737
0.093868129
0.096937155
0.10441498
0.113269
0.12265401
0.13514093
0.14696024
0.14764919
0.13882089
0.18321699
0.33989414
0.53536049
0.6445815
0.62610243
0.50471692
0.34056516
0.19488586
0.098922928
0.045871235
0.019604224
0.0076370075
0.002635296
0.00078927334
0.00029384509
0.00057571648
0.0041113216
0.092974272
0.099693801
0.094317174
0.093178321
0.093853615
0.096901901
0.10433052
0.11314847
0.12247637
0.13484913
0.14654738
0.14723104
0.13851043
0.18314635
0.34000505
0.53538153
0.64439601
0.62574291
0.50429844
0.34019992
0.19463943
0.098783938
0.045802169
0.019573246
0.007624494
0.0026308604
0.00078793853
0.00029341391
0.00057504149
0.0041065593
0.092966092
0.099684435
0.094307851
0.093168023
0.093839054
0.096866733
0.10424547
0.11302726
0.12229834
0.13455764
0.14613737
0.14681769
0.13820678
0.18307585
0.34010467
0.53538799
0.64420084
0.62538204
0.50388554
0.33984329
0.19440008
0.098649305
0.045735372
0.01954331
0.0076124086
0.0026265776
0.00078664933
0.00029299593
0.00057438286
0.0041019091
0.092957861
0.099675134
0.094298648
0.093157768
0.093824413
0.096831564
0.1041598
0.11290533
0.12211991
0.13426666
0.14573038
0.14640916
0.13790964
0.18300602
0.34019507
0.53538225
0.64399701
0.62501854
0.50347509
0.33949176
0.19416513
0.098517416
0.045669999
0.019514028
0.0076005897
0.0026223893
0.00078538758
0.00029258403
0.00057372656
0.0040972736
0.092949577
0.09966585
0.094289489
0.093147509
0.093809673
0.096796318
0.10407353
0.1127826
0.12194106
0.1339764
0.14532632
0.14600538
0.13761865
0.1829373
0.34027796
0.53536627
0.64378532
0.62465128
0.50306441
0.33914211
0.19393217
0.098386858
0.045605354
0.01948509
0.0075889152
0.0026182531
0.0007841409
0.00029217481
0.00057306899
0.0040926294
0.092941236
0.099656546
0.094280343
0.093137205
0.093794811
0.096760931
0.10398658
0.11265898
0.12176178
0.13368696
0.14492516
0.14560621
0.13733344
0.18286998
0.3403547
0.5353416
0.64356654
0.62427987
0.50265176
0.33879192
0.1936991
0.098256288
0.045540693
0.019456141
0.0075772347
0.0026141148
0.00078289382
0.0002917659
0.00057241313
0.0040879991
0.092932837
0.099647192
0.094271183
0.093126828
0.093779804
0.096725343
0.10389887
0.11253439
0.12158207
0.13339839
0.14452688
0.14521158
0.13705371
0.18280429
0.34042635
0.53530933
0.64334132
0.62390451
0.50223721
0.33844103
0.19346587
0.09812571
0.045476049
0.019427201
0.007565559
0.0026099789
0.000781649
0.00029136186
0.00057177536
0.0040834971
0.092924377
0.099637761
0.094261984
0.093116353
0.093764626
0.096689493
0.10381034
0.11240873
0.12140189
0.13311069
0.14413152
0.14482145
0.13677918
0.18274041
0.34049371
0.53527029
0.6431104
0.62352615
0.50182205
0.33809084
0.19323356
0.097995778
0.045411749
0.019398418
0.0075539453
0.0026058653
0.00078041291
0.00029096648
0.0005711657
0.0040791926
0.092915854
0.099628232
0.094252726
0.093105757
0.093749251
0.096653327
0.10372091
0.11228193
0.12122121
0.13282389
0.14373913
0.14443583
0.13650971
0.18267849
0.34055752
0.53522545
0.64287488
0.62314607
0.50140785
0.33774299
0.19300347
0.097867314
0.045348243
0.019370005
0.0075424841
0.0026018063
0.00077919434
0.00029057997
0.00057057804
0.0040750428
0.092907265
0.099618589
0.094243388
0.093095015
0.093733651
0.096616799
0.10363054
0.1121539
0.12103998
0.13253805
0.1433498
0.14405479
0.13624518
0.18261874
0.34061873
0.53517623
0.64263617
0.62276531
0.500995
0.3373973
0.19277515
0.09773992
0.045285273
0.01934183
0.0075311169
0.0025977806
0.00077798651
0.000290199
0.00057000425
0.0040709909
0.092898611
0.099608817
0.094233953
0.093084109
0.093717803
0.096579868
0.10353918
0.11202458
0.12085819
0.13225323
0.14296365
0.14367839
0.13598552
0.18256135
0.34067814
0.53512377
0.64239528
0.62238448
0.50058379
0.33705395
0.19254876
0.097613717
0.045222917
0.019313933
0.0075198612
0.0025937939
0.00077679069
0.0002898234
0.00056944274
0.0040670253
0.092889888
0.099598903
0.094224406
0.093073021
0.093701685
0.096542494
0.10344676
0.11189389
0.12067579
0.13196949
0.1425808
0.1433067
0.13573067
0.18250647
0.34073646
0.53506908
0.64215307
0.622004
0.50017423
0.33671271
0.19232402
0.097488499
0.045161054
0.019286252
0.0075086908
0.0025898368
0.00077560395
0.00028945179
0.00056889025
0.0040631232
0.092881097
0.099588835
0.094214734
0.093061734
0.093685275
0.096504638
0.10335324
0.11176179
0.12049279
0.1316869
0.14220134
0.14293981
0.13548059
0.18245422
0.34079424
0.53501296
0.64191023
0.62162426
0.49976641
0.33637352
0.19210092
0.097364298
0.045099719
0.019258811
0.0074976162
0.0025859127
0.00077442692
0.00028908352
0.00056834383
0.0040592642
0.092872239
0.099578604
0.094204928
0.093050235
0.093668553
0.096466271
0.1032586
0.11162822
0.12030916
0.13140553
0.14182541
0.1425778
0.13523523
0.18240472
0.34085203
0.53495623
0.64166754
0.62124564
0.49936012
0.33603571
0.19187874
0.097240587
0.045038612
0.019231467
0.0074865797
0.0025820025
0.00077325469
0.00028871826
0.00056780574
0.0040554645
0.092863313
0.099568204
0.094194978
0.093038511
0.093651502
0.096427364
0.10316278
0.11149316
0.12012489
0.13112543
0.14145312
0.14222075
0.13499457
0.182358
0.34091012
0.5348993
0.64142546
0.6208687
0.49895614
0.33570014
0.19165819
0.097117835
0.044977987
0.019204337
0.0074756275
0.0025781212
0.00077209116
0.00028835666
0.00056727575
0.0040517218
0.09285432
0.099557628
0.094184879
0.093026553
0.093634105
0.096387891
0.10306578
0.11135656
0.11993999
0.13084666
0.14108459
0.14186877
0.13475861
0.18231412
0.34096885
0.53484273
0.64118457
0.62049388
0.49855466
0.33536684
0.1914392
0.096995957
0.044917786
0.01917739
0.0074647466
0.0025742644
0.00077093515
0.00028799852
0.00056675388
0.0040480359
0.092845262
0.099546873
0.094174624
0.093014353
0.093616349
0.09634783
0.10296756
0.1112184
0.11975446
0.1305693
0.14071993
0.14152195
0.13452734
0.18227314
0.3410284
0.53478684
0.64094527
0.62012159
0.4981561
0.33503623
0.19122217
0.096875253
0.044858185
0.019150715
0.007453974
0.0025704451
0.00076979006
0.000287644
0.00056623819
0.0040443935
0.092836142
0.099535936
0.094164211
0.093001903
0.093598221
0.096307163
0.10286813
0.11107868
0.11956832
0.1302934
0.14035924
0.14118039
0.13430079
0.18223509
0.3410891
0.53473222
0.64070827
0.61975226
0.49776036
0.33470768
0.19100637
0.09675518
0.044798877
0.019124166
0.0074432523
0.0025666443
0.00076865109
0.00028729227
0.00056572876
0.0040407956
0.092826962
0.099524817
0.094153636
0.0929892
0.093579716
0.096265874
0.10276747
0.11093738
0.11938158
0.13001903
0.14000263
0.1408442
0.13407896
0.1822
0.34115103
0.53467903
0.64047381
0.6193864
0.4973682
0.33438209
0.19079255
0.096636216
0.044740115
0.019097856
0.0074326242
0.0025628755
0.00076752145
0.00028694385
0.00056522551
0.0040372412
0.092817726
0.099513517
0.0941429
0.092976239
0.093560827
0.096223952
0.1026656
0.11079453
0.11919427
0.12974626
0.13965022
0.14051346
0.13386189
0.18216789
0.34121435
0.53462755
0.64024228
0.61902437
0.4969799
0.33405955
0.19058066
0.096518292
0.044681847
0.019071759
0.0074220787
0.0025591351
0.00076640048
0.00028659912
0.00056473035
0.0040337432
0.092808439
0.09950204
0.094132003
0.09296302
0.093541555
0.096181392
0.10256254
0.11065013
0.11900641
0.12947516
0.13930209
0.14018825
0.13364962
0.18213879
0.34127912
0.5345779
0.64001384
0.61866646
0.49659588
0.33374068
0.19037129
0.096401821
0.044624308
0.019045988
0.0074116624
0.0025554391
0.00076529236
0.00028625829
0.00056424095
0.004030285
0.092799104
0.099490388
0.094120945
0.092949542
0.093521899
0.096138188
0.1024583
0.1105042
0.11881804
0.12920578
0.13895832
0.13986867
0.13344218
0.18211275
0.34134557
0.53453052
0.63978895
0.61831284
0.49621588
0.33342473
0.19016366
0.096286245
0.04456719
0.0190204
0.0074013206
0.0025517703
0.00076419281
0.00028592071
0.00056375754
0.0040268687
0.092789727
0.099478569
0.094109729
0.092935807
0.093501863
0.096094346
0.10235294
0.1103568
0.11862921
0.1289382
0.13861897
0.13955476
0.13323959
0.18208977
0.34141369
0.53448535
0.63956762
0.61796376
0.49584047
0.33311254
0.18995849
0.096172028
0.044510732
0.0189951
0.0073910908
0.0025481393
0.00076310388
0.00028558564
0.00056327605
0.0040234656
0.092780315
0.099466591
0.094098361
0.09292182
0.093481453
0.096049878
0.10224649
0.11020797
0.11843996
0.12867245
0.1382841
0.13924659
0.13304189
0.18206991
0.3414836
0.53444262
0.63935003
0.61761925
0.4954695
0.3328038
0.18975546
0.096058932
0.044454796
0.018970021
0.0073809451
0.0025445368
0.0007620232
0.00028525328
0.00056279907
0.0040200935
0.092770874
0.099454462
0.094086846
0.092907581
0.093460673
0.0960048
0.10213901
0.11005776
0.11825033
0.1284086
0.13795376
0.13894419
0.13284913
0.18205322
0.34155537
0.53440235
0.63913612
0.61727928
0.49510314
0.33249899
0.18955511
0.095947377
0.044399628
0.018945284
0.0073709346
0.0025409803
0.00076095528
0.00028492366
0.00056232331
0.0040167292
0.09276141
0.099442194
0.094075189
0.092893095
0.093439532
0.095959136
0.10203057
0.10990626
0.11806039
0.12814667
0.13762796
0.13864758
0.13266133
0.18203977
0.34162924
0.53436498
0.63892622
0.61694369
0.49474067
0.33219691
0.18935633
0.095836602
0.044344824
0.018920705
0.0073609892
0.0025374478
0.00075989471
0.00028459582
0.00056184849
0.0040133716
0.09275193
0.099429798
0.094063396
0.092878367
0.09341804
0.095912915
0.10192124
0.10975354
0.11787017
0.1278867
0.13730669
0.13835675
0.13247848
0.18202956
0.34170512
0.5343303
0.63872013
0.61661253
0.49438245
0.33189829
0.18915981
0.095727081
0.044290632
0.018896396
0.0073511494
0.002533951
0.00075884383
0.0002842693
0.0005613715
0.0040099982
0.09274244
0.099417286
0.094051473
0.092863407
0.093396207
0.09586617
0.10181111
0.10959967
0.11767975
0.12762871
0.13698995
0.13807168
0.13230059
0.18202263
0.3417831
0.53429844
0.63851787
0.61628559
0.49402806
0.33160253
0.18896501
0.095618445
0.044236851
0.018872262
0.0073413772
0.0025304774
0.00075779957
0.00028394423
0.00056089508
0.0040066283
0.092732946
0.099404673
0.094039428
0.092848222
0.093374047
0.095818936
0.10170028
0.10944474
0.11748918
0.12737273
0.1366777
0.13779233
0.13212763
0.18201902
0.34186315
0.53426931
0.63831927
0.61596274
0.49367753
0.33130998
0.18877238
0.09551106
0.044183693
0.018848405
0.007331714
0.0025270405
0.000756765
0.00028362026
0.00056041573
0.0040032371
0.092723456
0.099391974
0.09402727
0.092832824
0.093351573
0.095771256
0.10158883
0.10928886
0.1172985
0.12711875
0.13636989
0.13751861
0.13195959
0.18201877
0.34194552
0.53424333
0.63812474
0.61564387
0.49333005
0.33101921
0.1885806
0.095404018
0.044130679
0.018824609
0.0073220782
0.002523615
0.00075573438
0.00028329733
0.00055993693
0.0039998503
0.092713977
0.099379205
0.094015007
0.092817221
0.093328802
0.095723174
0.10147688
0.10913212
0.11710779
0.12686679
0.13606643
0.13725041
0.1317964
0.18202187
0.34203002
0.53422016
0.63793399
0.61532915
0.4929864
0.33073145
0.18839073
0.09529803
0.044078171
0.018801033
0.0073125267
0.0025202174
0.00075471118
0.00028297559
0.00055945733
0.0039964571
0.092704516
0.09936638
0.094002648
0.092801426
0.093305749
0.095674739
0.10136455
0.10897463
0.1169171
0.12661683
0.13576724
0.13698764
0.13163801
0.18202831
0.34211669
0.53419989
0.6377471
0.61501862
0.49264644
0.33044637
0.18820245
0.09519284
0.044026029
0.018777609
0.0073030335
0.0025168397
0.00075369381
0.00028265557
0.00055898005
0.00399308
0.092695078
0.099353516
0.093990201
0.09278545
0.093282431
0.095626002
0.10125194
0.1088165
0.11672648
0.12636884
0.13547222
0.13673018
0.13148434
0.18203811
0.34220549
0.53418238
0.63756397
0.61471231
0.49231049
0.33016465
0.18801646
0.095088981
0.043974549
0.018754479
0.0072936549
0.0025135003
0.00075268659
0.00028233709
0.00055850136
0.0039896922
0.09268567
0.099340628
0.093977677
0.092769306
0.09325887
0.095577015
0.10113917
0.10865785
0.11653599
0.12612281
0.13518127
0.13647789
0.13133529
0.1820513
0.34229671
0.53416818
0.63738512
0.6144102
0.49197777
0.32988479
0.18783134
0.094985466
0.043923212
0.018731411
0.007284305
0.0025101732
0.00075168389
0.0002820202
0.00055802486
0.0039863206
0.092676299
0.09932773
0.093965086
0.09275301
0.093235085
0.095527827
0.10102638
0.10849878
0.11634568
0.12587871
0.13489428
0.13623063
0.13119078
0.18206786
0.34239023
0.53415699
0.63721032
0.61411256
0.49164915
0.32960815
0.18764828
0.094883089
0.043872423
0.01870858
0.0072750456
0.0025068759
0.00075068905
0.00028170449
0.00055754728
0.0039829405
0.092666971
0.099314835
0.093952444
0.092736576
0.093211099
0.095478487
0.10091367
0.10833941
0.11615559
0.12563649
0.13461109
0.13598824
0.13105071
0.18208779
0.34248611
0.53414895
0.6370397
0.61381938
0.49132438
0.32933423
0.18746679
0.094781476
0.043821976
0.01868589
0.0072658401
0.0025035972
0.00074969969
0.00028139051
0.00055707219
0.0039795777
0.092657692
0.099301957
0.093939764
0.09272002
0.093186936
0.095429043
0.10080117
0.10817985
0.11596577
0.12539612
0.13433156
0.13575055
0.130915
0.18211106
0.34258429
0.53414391
0.6368731
0.61353069
0.49100382
0.32906379
0.18728763
0.094681203
0.04377219
0.01866349
0.0072567465
0.0025003552
0.00074871995
0.00028107789
0.00055659552
0.0039762028
0.092648466
0.099289111
0.093927058
0.092703355
0.093162621
0.095379539
0.10068901
0.10802021
0.11577626
0.12515753
0.13405553
0.1355174
0.13078354
0.18213771
0.34268505
0.53414237
0.63671102
0.61324648
0.49068671
0.32879529
0.18710934
0.094581261
0.043722533
0.018641144
0.0072476771
0.002497124
0.00074774422
0.00028076683
0.00055612137
0.0039728465
0.0926393
0.099276312
0.09391434
0.092686597
0.093138177
0.095330023
0.10057729
0.10786059
0.11558709
0.12492068
0.13378285
0.13528861
0.1306562
0.18216768
0.3427882
0.53414399
0.63655322
0.61296707
0.49037406
0.32853031
0.18693329
0.094482525
0.043673445
0.018619038
0.0072386977
0.0024939216
0.00074677595
0.00028045687
0.0005556462
0.0039694823
0.092630198
0.099263571
0.09390162
0.092669759
0.093113625
0.095280543
0.10046613
0.10770108
0.11539828
0.12468549
0.1335134
0.13506399
0.13053287
0.18220095
0.34289386
0.53414896
0.63639987
0.61269247
0.49006564
0.32826835
0.18675898
0.094384644
0.043624736
0.018597085
0.0072297753
0.0024907382
0.00074581314
0.00028014877
0.00055517425
0.0039661404
0.092621165
0.0992509
0.093888911
0.092652851
0.093088983
0.095231152
0.10035563
0.10754178
0.11520987
0.12445193
0.133247
0.13484337
0.13041343
0.18223749
0.34300197
0.53415716
0.63625082
0.61242272
0.48976182
0.32801024
0.18658729
0.094288268
0.043576772
0.018575461
0.0072209798
0.0024875967
0.00074486139
0.00027984234
0.00055470085
0.0039627874
0.092612206
0.099238311
0.093876225
0.092635885
0.093064268
0.095181901
0.10024589
0.10738278
0.11502188
0.12421991
0.13298351
0.13462657
0.13029778
0.18227735
0.34311289
0.53416921
0.63610666
0.61215777
0.48946171
0.32775426
0.18641659
0.094192292
0.043528974
0.018553908
0.007212217
0.0024844692
0.00074391464
0.00027953761
0.0005542297
0.0039594511
0.092603326
0.099225814
0.093863572
0.092618871
0.093039493
0.095132837
0.10013698
0.10722415
0.11483431
0.12398937
0.13272277
0.13441342
0.13018576
0.18232045
0.34322644
0.53418479
0.6359672
0.611898
0.48916634
0.327502
0.18624825
0.09409761
0.043481798
0.018532624
0.0072035568
0.0024813755
0.0007429768
0.00027923417
0.00055375707
0.0039561036
0.092594529
0.099213421
0.093850962
0.092601821
0.093014671
0.095084004
0.10002901
0.10706597
0.11464719
0.12376024
0.13246467
0.13420375
0.13007728
0.18236677
0.34334273
0.53420408
0.63583263
0.61164345
0.48887549
0.3272529
0.18608173
0.094003817
0.043435019
0.018511503
0.0071949586
0.0024783029
0.00074204516
0.00027893265
0.00055328722
0.0039527754
0.092585817
0.099201142
0.093838407
0.092584746
0.092989812
0.095035441
0.099922024
0.1069083
0.11446052
0.12353249
0.13220907
0.13399741
0.12997221
0.18241629
0.3434617
0.53422696
0.63570283
0.61139421
0.48858962
0.32700788
0.18591793
0.093911574
0.043389002
0.018490717
0.0071864897
0.0024752731
0.0007411248
0.00027863281
0.00055281576
0.003949435
0.092577194
0.099188985
0.093825915
0.092567658
0.092964927
0.094987179
0.0998161
0.1067512
0.11427432
0.12330603
0.13195586
0.13379425
0.12987048
0.18246905
0.34358374
0.53425404
0.63557837
0.61115027
0.48830786
0.32676526
0.18575527
0.093819789
0.043343173
0.018470008
0.0071780547
0.0024722572
0.00074020938
0.00027833465
0.00055234658
0.0039461114
0.092568663
0.099176961
0.093813497
0.092550567
0.092940028
0.094939243
0.099711289
0.10659472
0.11408858
0.12308082
0.13170492
0.13359415
0.12977199
0.18252498
0.34370867
0.53428501
0.63545901
0.61091196
0.48803127
0.32652665
0.18559514
0.093729387
0.043298001
0.018449581
0.0071697268
0.0024692764
0.00073930316
0.00027803785
0.00055187599
0.003942777
0.092560229
0.099165081
0.093801161
0.092533487
0.092915128
0.09489165
0.099607633
0.1064389
0.11390329
0.12285679
0.13145616
0.13339699
0.12967665
0.18258407
0.34383658
0.53432
0.6353449
0.61067926
0.48775958
0.32629154
0.18543704
0.093639989
0.043253285
0.018429343
0.0071614705
0.00246632
0.00073840401
0.0002777432
0.00055140845
0.0039394637
0.092551893
0.099153352
0.093788915
0.092516429
0.092890242
0.094844409
0.099505165
0.10628376
0.11371846
0.12263391
0.1312095
0.13320268
0.12958441
0.18264629
0.34396744
0.53435893
0.63523588
0.61045217
0.48749311
0.32606069
0.18528178
0.093552211
0.043209366
0.018409457
0.0071533515
0.0024634094
0.00073751704
0.00027745023
0.00055093852
0.0039361328
0.092543657
0.099141786
0.093776767
0.092499403
0.092865384
0.09479753
0.099403907
0.10612933
0.11353409
0.12241213
0.13096489
0.13301114
0.1294952
0.18271167
0.3441016
0.5344024
0.63513252
0.61023059
0.4872309
0.32583229
0.18512768
0.093464904
0.043165643
0.018389653
0.0071452678
0.0024605133
0.00073663513
0.00027715899
0.00055047099
0.0039328194
0.092535526
0.09913039
0.093764726
0.092482417
0.092840565
0.094751026
0.09930387
0.10597562
0.11335017
0.12219141
0.13072225
0.1328223
0.12940894
0.1827801
0.34423881
0.53445
0.63503453
0.61001489
0.48697403
0.32560802
0.1849762
0.093379029
0.043122607
0.018370145
0.0071372984
0.002457655
0.00073576337
0.00027686941
0.0005500025
0.0039294986
0.0925275
0.099119174
0.0937528
0.092465478
0.092815802
0.094704912
0.099205054
0.10582266
0.1131667
0.12197172
0.13048156
0.13263611
0.1293256
0.18285157
0.34437913
0.53450189
0.63494209
0.60980506
0.48672224
0.32538734
0.18482679
0.093294178
0.043080034
0.01835083
0.0071294023
0.0024548218
0.00073489887
0.00027658196
0.00054953673
0.0039261964
0.092519582
0.099108147
0.093740995
0.092448595
0.092791099
0.09465921
0.099107452
0.10567044
0.11298368
0.12175304
0.13024278
0.13245253
0.12924514
0.18292603
0.34452247
0.53455792
0.63485506
0.60960116
0.48647592
0.32517104
0.18468026
0.093210953
0.043038258
0.018331866
0.0071216426
0.0024520341
0.00073404652
0.00027629628
0.00054906899
0.0039228797
0.092511775
0.099097317
0.09372932
0.092431778
0.092766461
0.094613931
0.099011047
0.10551897
0.11280111
0.12153536
0.13000589
0.13227154
0.12916754
0.18300348
0.3446691
0.53461862
0.63477398
0.60940321
0.48623428
0.32495752
0.18453508
0.093128296
0.042996716
0.018312997
0.0071139219
0.0024492615
0.00073319928
0.00027601239
0.00054860396
0.0039195827
0.092504078
0.099086693
0.093717781
0.092415036
0.092741892
0.094569082
0.098915817
0.10536826
0.11261899
0.12131867
0.12977085
0.13209315
0.12909275
0.18308382
0.34481876
0.53468362
0.63469861
0.60921159
0.48599843
0.32474846
0.18439271
0.093047156
0.042955896
0.018294436
0.0071063189
0.0024465277
0.00073236238
0.00027573024
0.00054813819
0.0039162798
0.092496493
0.099076283
0.093706386
0.092398378
0.092717398
0.094524665
0.098821737
0.10521831
0.11243735
0.12110296
0.1295377
0.13191735
0.12902079
0.18316703
0.34497151
0.53475306
0.63462913
0.60902629
0.48576812
0.32454334
0.18425263
0.09296716
0.042915593
0.01827609
0.0070987969
0.0024438212
0.00073153328
0.00027545043
0.00054767564
0.0039129987
0.092489021
0.099066094
0.093695141
0.092381815
0.092692987
0.094480679
0.098728779
0.10506911
0.11225617
0.12088822
0.12930646
0.13174418
0.12895165
0.18325303
0.34512717
0.53482674
0.63456532
0.60884733
0.4855437
0.32434294
0.18411566
0.09288893
0.042876162
0.01825813
0.0070914261
0.0024411656
0.00073071792
0.00027517271
0.00054721115
0.0039097033
0.092481665
0.099056137
0.093684049
0.092365357
0.09266867
0.094437117
0.098636907
0.10492068
0.11207549
0.12067446
0.12907712
0.13157364
0.12888534
0.18334181
0.34528595
0.5349051
0.63450765
0.60867459
0.48532423
0.32414552
0.18398018
0.092811343
0.042837006
0.018240285
0.0070841037
0.0024385288
0.00072990882
0.00027489704
0.00054674939
0.0039064278
0.092474424
0.099046419
0.093673117
0.092349015
0.092644464
0.094393967
0.098546084
0.10477299
0.11189531
0.12046168
0.12884973
0.13140576
0.12882183
0.18343326
0.3454475
0.53498761
0.63445575
0.60850835
0.48511078
0.32395276
0.18384766
0.092735374
0.042798631
0.018222781
0.0070769132
0.0024359362
0.00072911169
0.00027462328
0.00054628617
0.0039031412
0.092467299
0.099036947
0.09366235
0.092332796
0.092620384
0.094351214
0.098456268
0.10462605
0.11171566
0.1202499
0.12862431
0.13124057
0.12876116
0.18352732
0.34561172
0.53507423
0.63440958
0.60834847
0.48490297
0.32376402
0.18371747
0.092660574
0.042760789
0.018205499
0.0070698087
0.0024333732
0.00072832317
0.00027435204
0.00054582621
0.0038998767
0.092460289
0.099027729
0.093651754
0.092316707
0.092596442
0.094308848
0.098367416
0.10447987
0.11153656
0.12003915
0.12840091
0.13107809
0.12870332
0.18362388
0.34577833
0.53516452
0.63436869
0.60819479
0.48470112
0.32358014
0.18359054
0.09258764
0.042723875
0.018188631
0.0070628665
0.002430865
0.00072754949
0.00027408308
0.0005453641
0.0038965965
0.092453395
0.099018773
0.09364133
0.092300751
0.092572642
0.094266867
0.098279486
0.10433445
0.11135803
0.11982944
0.12817955
0.13091834
0.12864831
0.18372295
0.34594748
0.53525886
0.63433342
0.60804701
0.48450409
0.32339921
0.18346507
0.092515339
0.042687232
0.018171877
0.007055973
0.002428376
0.00072678231
0.00027381631
0.00054490507
0.0038933385
0.092446617
0.099010082
0.093631082
0.092284937
0.09254899
0.094225259
0.098192436
0.1041898
0.11118011
0.11962081
0.12796029
0.13076133
0.12859614
0.18382439
0.34611874
0.53535653
0.63430317
0.60790527
0.48431292
0.32322298
0.18334267
0.092444741
0.042651419
0.018155488
0.0070492212
0.0024259347
0.00072602813
0.00027355182
0.00054444527
0.0038900741
0.092439952
0.099001662
0.093621015
0.092269273
0.092525491
0.094184017
0.098106222
0.10404592
0.11100282
0.11941329
0.12774316
0.13060707
0.1285468
0.18392814
0.34629199
0.53545745
0.63427783
0.60776926
0.48412704
0.32305067
0.1832226
0.092375336
0.042616161
0.018139333
0.0070425613
0.0024235253
0.00072528326
0.00027328994
0.00054398842
0.0038868295
0.092433402
0.098993519
0.093611132
0.092253761
0.092502147
0.09414313
0.098020802
0.10390283
0.1108262
0.11920691
0.12752822
0.13045557
0.1285003
0.18403415
0.346467
0.53556121
0.63425689
0.60763865
0.48394652
0.32288288
0.18310564
0.092307746
0.042581815
0.01812359
0.0070360641
0.0024211711
0.00072455325
0.00027302995
0.00054352794
0.003883559
0.092426966
0.098985655
0.093601435
0.092238406
0.092478959
0.094102585
0.097936134
0.10376055
0.11065028
0.11900172
0.12731553
0.13030685
0.12845665
0.18414244
0.34664399
0.53566824
0.63424069
0.60751303
0.48376995
0.32271729
0.18298965
0.09224051
0.042547609
0.018107906
0.007029595
0.0024188296
0.00072382813
0.00027277194
0.00054307075
0.0038803123
0.092420643
0.098978073
0.093591924
0.092223208
0.092455926
0.094062367
0.097852181
0.10361908
0.11047509
0.11879776
0.12710511
0.13016091
0.12841583
0.18425288
0.34682252
0.53577776
0.63422856
0.60739255
0.48359852
0.3225559
0.18287642
0.092174836
0.042514171
0.018092561
0.0070232592
0.0024165332
0.00072311535
0.00027251615
0.00054261308
0.0038770616
0.092414431
0.098970775
0.093582602
0.092208167
0.092433047
0.094022461
0.097768903
0.10347844
0.11030068
0.11859508
0.126897
0.13001775
0.12837784
0.18436543
0.34700249
0.53588964
0.63422033
0.60727691
0.4834317
0.32239796
0.18276526
0.092110208
0.042481219
0.018077424
0.0070170045
0.0024142653
0.00072241118
0.00027226321
0.00054215979
0.0038738406
0.09240833
0.098963762
0.093573468
0.092193285
0.092410325
0.093982849
0.097686266
0.10333865
0.11012708
0.11839371
0.12669126
0.12987737
0.1283427
0.18448005
0.34718365
0.53600342
0.63421546
0.60716581
0.48326971
0.32224434
0.18265714
0.092047389
0.042449186
0.018062701
0.0070109147
0.0024120534
0.00072172215
0.00027201242
0.00054170363
0.0038705986
0.092402339
0.098957034
0.093564518
0.092178558
0.092387765
0.093943514
0.097604236
0.10319973
0.10995434
0.1181937
0.12648791
0.1297398
0.12831041
0.18459681
0.34736633
0.53611963
0.63421431
0.60705878
0.48311102
0.32209255
0.18254982
0.091984843
0.042417256
0.018048024
0.0070048478
0.0024098527
0.00072103759
0.0002717634
0.0005412502
0.0038673764
0.092396454
0.09895059
0.093555756
0.092163985
0.092365374
0.093904446
0.097522782
0.10306169
0.10978247
0.1179951
0.12628699
0.12960504
0.12828096
0.18471563
0.34755018
0.53623757
0.63421621
0.60695588
0.48295664
0.32194446
0.18244497
0.091923704
0.04238602
0.018033653
0.0069989009
0.0024076922
0.00072036379
0.0002715157
0.00054079386
0.0038641329
0.092390675
0.098944429
0.093547183
0.092149562
0.092343135
0.09386565
0.097441875
0.10292456
0.10961153
0.11779796
0.12608854
0.1294731
0.12825436
0.18483649
0.34773524
0.53635728
0.63422106
0.60685671
0.48280584
0.32179901
0.18234166
0.091863321
0.042355124
0.018019423
0.0069930084
0.0024055507
0.00071969565
0.00027126982
0.00054034019
0.0038609075
0.092385002
0.09893855
0.093538806
0.092135285
0.092321046
0.093827106
0.097361489
0.10278835
0.10944156
0.11760232
0.12589257
0.12934401
0.1282306
0.18495942
0.34792137
0.53647834
0.63422831
0.60676099
0.48265887
0.32165713
0.18224095
0.091804516
0.042325037
0.01800556
0.0069872618
0.0024034587
0.00071904089
0.00027102591
0.00053988437
0.0038576665
0.092379432
0.09893295
0.093530618
0.092121148
0.092299097
0.0937888
0.097281602
0.10265308
0.10927257
0.11740821
0.12569914
0.12921778
0.12820971
0.18508451
0.348109
0.53660143
0.63423849
0.60666838
0.48251433
0.32151643
0.18214062
0.091745758
0.042294945
0.017991695
0.0069815197
0.0024013716
0.00071838892
0.00027078366
0.00053943213
0.0038544515
0.092373966
0.098927626
0.093522616
0.092107144
0.092277283
0.093750711
0.097202191
0.10251878
0.1091046
0.11721566
0.12550826
0.1290944
0.12819166
0.18521167
0.34829788
0.53672597
0.63425105
0.60657909
0.48237342
0.32137897
0.18204255
0.091688315
0.042265512
0.017978125
0.006975894
0.0023993238
0.00071774756
0.00027054294
0.00053897801
0.0038512226
0.092368601