/*--------------------------------*- C++ -*----------------------------------*\
| =========                 |                                                 |
| \\      /  F ield         | OpenFOAM: The Open Source CFD Toolbox           |
|  \\    /   O peration     | Version:  v2012                                 |
|   \\  /    A nd           | Website:  www.openfoam.com                      |
|    \\/     M anipulation  |                                                 |
\*---------------------------------------------------------------------------*/
FoamFile
{
    version     2.0;
    format      ascii;
    class       volScalarField;
    location    "150";
    object      Ma;
}
// * * * * * * * * * * * * * * * * * * * * * * * * * * * * * * * * * * * * * //

dimensions      [0 0 0 0 0 0 0];


internalField   nonuniform List<scalar> 
24000
(
0.035382234
0.036025858
0.036283355
0.036362759
0.036458458
0.036651608
0.037036921
0.037416879
0.037338655
0.036134167
0.03357766
0.030798184
0.028514511
0.026429847
0.02431888
0.022117797
0.019747054
0.017272456
0.014819303
0.012489631
0.010350307
0.0084389451
0.0067656026
0.005319948
0.0040821578
0.0030293408
0.0021386941
0.0013889315
0.00076083948
0.00023739536
0.035385546
0.036032515
0.036291488
0.036373505
0.036474512
0.036675536
0.037069882
0.037461042
0.037396087
0.036205342
0.033670105
0.030909912
0.028643316
0.026579614
0.024491622
0.022319234
0.019981501
0.017541881
0.015125751
0.012833301
0.010726549
0.0088363383
0.0071664863
0.0057037666
0.0044293469
0.0033242291
0.0023708995
0.0015534838
0.00085749217
0.00026955385
0.035384899
0.036030874
0.036289406
0.036371255
0.036470309
0.036666848
0.037054789
0.037438447
0.037365491
0.036168837
0.033628307
0.030861454
0.028591443
0.026527649
0.024441889
0.022272991
0.019936944
0.01749438
0.015068975
0.012761648
0.010637021
0.008730237
0.0070497301
0.0055848445
0.0043170177
0.0032258751
0.0022917448
0.0014964729
0.0008235726
0.00025812958
0.035383589
0.036029468
0.036287904
0.036369843
0.036468142
0.036663279
0.037049368
0.037431537
0.037358855
0.036164174
0.033624149
0.030856334
0.028587444
0.026526256
0.024443541
0.02227736
0.019942875
0.017500368
0.015074585
0.012767652
0.010644936
0.0087413502
0.0070640636
0.0056013253
0.0043340247
0.00324176
0.0023051522
0.0015064811
0.00082969388
0.00026024326
0.035381869
0.036027422
0.036285699
0.036367426
0.036464874
0.036658839
0.037043284
0.037424323
0.03735219
0.036159037
0.03361832
0.030847582
0.028577241
0.02651575
0.024433382
0.022267642
0.019933432
0.017491154
0.015065661
0.012759159
0.01063685
0.0087334706
0.0070564463
0.0055941876
0.0043276389
0.00323637
0.0023009267
0.0015034986
0.0008279493
0.0002596656
0.035379713
0.036024951
0.036283152
0.036364741
0.036461638
0.03665487
0.037038005
0.037418434
0.037347249
0.036155767
0.033614094
0.03084018
0.028568307
0.026506479
0.024424519
0.0222594
0.019925713
0.017483935
0.015058979
0.012753093
0.010631498
0.0087289109
0.0070527028
0.0055912302
0.0043253961
0.0032347477
0.0022998225
0.0015028138
0.00082759401
0.00025956232
0.035377224
0.036022157
0.036280341
0.036361847
0.03645837
0.036651043
0.037032941
0.037412875
0.037342703
0.036152803
0.033610085
0.030832821
0.028559268
0.026496998
0.024415363
0.022250802
0.019917609
0.017476345
0.015051953
0.01274669
0.010625775
0.0087239053
0.0070484257
0.0055876729
0.0043225334
0.0032325411
0.0022982204
0.0015017545
0.00082700886
0.00025937962
0.03537446
0.036019115
0.036277337
0.036358827
0.036455101
0.036647307
0.037027987
0.037407482
0.037338379
0.036150015
0.033606335
0.030825673
0.02855042
0.026487694
0.024406391
0.0222424
0.019909722
0.017468994
0.015045183
0.012740554
0.010620324
0.0087191721
0.0070444143
0.0055843659
0.0043198967
0.0032305271
0.002296771
0.0015008041
0.00082648798
0.00025921838
0.035371475
0.036015882
0.036274185
0.036355711
0.036451812
0.036643603
0.03702305
0.037402124
0.037334143
0.036147272
0.03360275
0.030818672
0.028541712
0.02647853
0.024397567
0.022234156
0.019902005
0.017461822
0.015038597
0.012734601
0.01061505
0.0087146022
0.0070405479
0.005581182
0.0043173601
0.0032285907
0.0022953779
0.0014998909
0.00082598754
0.00025906343
0.035368312
0.036012499
0.036270913
0.036352515
0.036448496
0.036639906
0.037018094
0.037396758
0.037329949
0.036144547
0.0335993
0.030811799
0.028533135
0.026469508
0.024388893
0.022226073
0.019894459
0.017454824
0.01503218
0.012728808
0.010609924
0.0087101675
0.0070368032
0.0055781055
0.0043149153
0.0032267291
0.002294042
0.0014990171
0.00082550954
0.00025891565
0.035365003
0.036008997
0.036267547
0.036349249
0.036445147
0.0366362
0.037013104
0.037391371
0.037325771
0.036141878
0.033595879
0.030805027
0.028524671
0.026460608
0.024380353
0.022218133
0.019887064
0.017447974
0.015025901
0.012723139
0.010604905
0.0087058244
0.0070331356
0.0055750932
0.0043125226
0.0032249084
0.0022927363
0.0014981634
0.00082504263
0.0002587713
0.035361578
0.036005398
0.036264106
0.036345925
0.036441764
0.036632475
0.037008075
0.037385957
0.037321599
0.036139263
0.033592436
0.03079834
0.028516305
0.02645182
0.024371941
0.022210324
0.019879805
0.017441256
0.01501974
0.012717567
0.010599963
0.0087015382
0.0070295086
0.0055721088
0.0043101487
0.0032230998
0.002291438
0.0014973139
0.00082457763
0.00025862739
0.035358059
0.036001718
0.036260601
0.03634255
0.036438349
0.036628732
0.037003011
0.037380517
0.037317427
0.036136691
0.033588975
0.030791726
0.02850803
0.026443138
0.024363648
0.022202642
0.019872679
0.017434668
0.015013697
0.012712097
0.010595102
0.0086973134
0.0070259247
0.0055691526
0.0043077918
0.0032213004
0.0022901439
0.0014964658
0.00082411278
0.00025848334
0.035354463
0.035997974
0.036257043
0.036339134
0.036434908
0.036624973
0.036997918
0.037375052
0.037313257
0.036134155
0.033585506
0.030785177
0.028499839
0.026434557
0.024355468
0.02219508
0.019865679
0.017428205
0.01500777
0.012706729
0.010590327
0.0086931565
0.007022392
0.005566233
0.0043054595
0.0032195166
0.0022888591
0.0014956227
0.00082365014
0.00025833983
0.035350805
0.035994175
0.036253441
0.036335682
0.036431446
0.036621201
0.036992801
0.037369564
0.03730909
0.036131657
0.033582022
0.030778684
0.028491724
0.02642607
0.024347394
0.022187635
0.019858804
0.01742187
0.015001973
0.012701486
0.010585669
0.0086891055
0.0070189519
0.0055633913
0.0043031902
0.0032177814
0.0022876093
0.0014948027
0.0008232003
0.00025820032
0.035347096
0.035990333
0.036249802
0.036332201
0.036427967
0.03661742
0.036987665
0.03736406
0.037304918
0.036129174
0.033578528
0.030772236
0.028483678
0.026417669
0.02433942
0.022180298
0.019852049
0.017415661
0.014996304
0.012696372
0.010581136
0.0086851722
0.0070156192
0.0055606443
0.0043010011
0.0032161107
0.0022864082
0.0014940158
0.00082276923
0.0002580668
0.035343344
0.035986454
0.036246131
0.036328696
0.036424474
0.03661363
0.036982512
0.037358532
0.037300742
0.036126699
0.033575022
0.030765825
0.028475691
0.026409345
0.024331536
0.02217306
0.019845402
0.01740957
0.014990757
0.012691379
0.01057672
0.0086813479
0.0070123839
0.0055579811
0.0042988811
0.0032144945
0.0022852475
0.0014932561
0.00082235325
0.00025793803
0.035339557
0.035982545
0.036242435
0.036325172
0.036420968
0.036609831
0.036977342
0.037352982
0.037296553
0.036124226
0.033571493
0.030759444
0.028467755
0.026401088
0.024323729
0.022165906
0.019838848
0.017403574
0.014985305
0.012686478
0.010572389
0.0086776
0.0070092154
0.0055553745
0.0042968074
0.0032129142
0.0022841129
0.0014925137
0.00082194693
0.00025781228
0.035335741
0.03597861
0.036238717
0.036321632
0.036417453
0.036606025
0.036972155
0.037347415
0.037292353
0.03612176
0.033567944
0.030753084
0.028459864
0.026392898
0.024315995
0.022158832
0.019832378
0.017397666
0.014979941
0.012681661
0.010568136
0.008673922
0.0070061078
0.0055528191
0.004294775
0.0032113659
0.0022830016
0.0014917867
0.00082154911
0.00025768918
0.035331901
0.035974655
0.03623498
0.036318079
0.036413932
0.036602212
0.036966952
0.037341832
0.037288142
0.036119289
0.033564373
0.030746742
0.028452014
0.026384766
0.024308328
0.022151828
0.019825984
0.017391835
0.014974652
0.012676914
0.010563946
0.0086702995
0.0070030472
0.0055503025
0.0042927738
0.0032098415
0.0022819076
0.0014910711
0.00082115752
0.000257568
0.035328035
0.035970683
0.036231227
0.036314515
0.036410404
0.036598395
0.036961735
0.03733623
0.037283912
0.0361168
0.033560774
0.030740416
0.028444202
0.026376688
0.024300724
0.022144892
0.019819661
0.017386077
0.014969436
0.012672237
0.01055982
0.0086667316
0.0070000314
0.0055478213
0.0042907993
0.0032083365
0.002280827
0.001490364
0.00082077041
0.00025744817
0.035324153
0.035966696
0.03622746
0.036310942
0.036406873
0.036594571
0.036956496
0.037330599
0.037279661
0.036114293
0.033557154
0.0307341
0.028436425
0.02636866
0.024293177
0.022138014
0.019813399
0.017380382
0.01496428
0.012667617
0.010555746
0.0086632103
0.0069970564
0.0055453745
0.0042888528
0.0032068533
0.0022797621
0.0014896673
0.00082038914
0.00025733017
0.035320258
0.035962698
0.036223682
0.036307363
0.036403338
0.036590743
0.036951243
0.037324948
0.037275385
0.036111769
0.033553506
0.030727788
0.028428678
0.026360678
0.024285683
0.022131193
0.019807195
0.017374745
0.014959184
0.012663054
0.010551725
0.0086597375
0.0069941234
0.0055429629
0.0042869346
0.0032053918
0.002278713
0.0014889809
0.00082001347
0.00025721391
0.035316351
0.035958689
0.036219894
0.036303777
0.036399801
0.036586909
0.036945976
0.037319271
0.037271083
0.03610923
0.033549826
0.030721478
0.02842096
0.026352742
0.024278239
0.022124422
0.019801043
0.017369162
0.01495414
0.012658541
0.01054775
0.0086563054
0.0069912262
0.0055405818
0.0042850416
0.00320395
0.0022776784
0.0014883042
0.00081964322
0.00025709933
0.035312435
0.035954673
0.036216097
0.036300187
0.036396263
0.03658307
0.036940695
0.037313556
0.037266754
0.036106657
0.033546117
0.030715171
0.02841327
0.02634485
0.024270847
0.022117702
0.019794944
0.017363634
0.014949151
0.012654082
0.010543826
0.0086529184
0.0069883669
0.0055382313
0.0042831723
0.0032025259
0.0022766562
0.0014876356
0.00081927731
0.00025698609
0.035308512
0.035950651
0.036212294
0.036296594
0.036392724
0.036579226
0.036935398
0.037307816
0.037262392
0.036104051
0.033542375
0.030708862
0.028405606
0.026336998
0.0242635
0.022111027
0.019788889
0.017358148
0.014944204
0.012649662
0.010539938
0.0086495649
0.0069855375
0.0055359065
0.004281324
0.0032011182
0.0022756461
0.0014869749
0.00081891582
0.00025687423
0.035304582
0.035946623
0.036208485
0.036292997
0.036389184
0.036575375
0.036930085
0.037302046
0.037257994
0.036101408
0.033538593
0.03070255
0.028397966
0.026329185
0.024256197
0.022104395
0.019782876
0.017352705
0.0149393
0.012645285
0.010536091
0.0086462486
0.0069827406
0.0055336089
0.0042794977
0.0031997273
0.002274648
0.0014863221
0.00081855861
0.00025676368
0.035300648
0.035942591
0.036204671
0.036289398
0.036385642
0.036571517
0.036924755
0.037296246
0.037253556
0.03609874
0.03353478
0.030696233
0.028390348
0.026321409
0.024248935
0.022097803
0.019776902
0.017347299
0.014934431
0.012640943
0.010532278
0.0086429638
0.0069799731
0.0055313377
0.0042776941
0.0031983548
0.0022736637
0.0014856788
0.00081820669
0.00025665479
0.035296712
0.035938557
0.036200852
0.036285798
0.036382101
0.036567652
0.036919407
0.037290405
0.037249077
0.036096028
0.033530931
0.030689912
0.028382754
0.026313672
0.024241716
0.022091251
0.019770967
0.017341932
0.014929602
0.012636639
0.0105285
0.0086397119
0.0069772338
0.0055290901
0.0042759092
0.0031969968
0.00227269
0.0014850423
0.00081785855
0.00025654707
0.035292774
0.035934521
0.036197031
0.036282198
0.036378558
0.036563778
0.036914041
0.037284528
0.037244556
0.036093268
0.033527039
0.030683585
0.028375182
0.026305972
0.024234537
0.022084737
0.019765064
0.017336593
0.014924797
0.012632358
0.010524744
0.0086364802
0.0069745138
0.0055268602
0.00427414
0.0031956517
0.0022717262
0.0014844126
0.00081751429
0.00025644058
0.035288836
0.035930483
0.036193206
0.036278596
0.036375014
0.036559895
0.036908657
0.037278616
0.037239988
0.03609046
0.03352311
0.030677251
0.028367632
0.026298309
0.024227399
0.022078259
0.019759194
0.017331284
0.014920021
0.012628103
0.010521012
0.0086332688
0.0069718105
0.0055246432
0.0042723805
0.0031943134
0.0022707668
0.0014837857
0.00081717139
0.00025633447
0.035284898
0.035926443
0.036189379
0.036274994
0.036371468
0.036556001
0.036903252
0.037272652
0.037235371
0.036087608
0.033519139
0.030670911
0.028360107
0.026290683
0.0242203
0.022071816
0.019753355
0.017326001
0.014915265
0.012623865
0.010517295
0.0086300717
0.0069691206
0.0055224388
0.004270632
0.0031929844
0.0022698147
0.0014831637
0.00081683126
0.00025622922
0.035280963
0.035922405
0.03618555
0.036271393
0.03636792
0.036552096
0.036897827
0.037266646
0.037230699
0.03608471
0.033515124
0.030664564
0.028352603
0.026283095
0.024213243
0.022065411
0.019747546
0.017320744
0.014910534
0.012619649
0.010513597
0.0086268904
0.0069664428
0.0055202431
0.0042688896
0.0031916593
0.0022688651
0.0014825432
0.00081649183
0.00025612415
0.03527703
0.03591837
0.03618172
0.036267793
0.036364371
0.036548179
0.036892381
0.037260599
0.037225974
0.03608175
0.033511067
0.030658208
0.028345121
0.026275543
0.024206225
0.022059039
0.019741763
0.017315504
0.014905812
0.012615439
0.010509902
0.0086237106
0.0069637666
0.0055180493
0.0042671493
0.0031903362
0.0022679169
0.0014819236
0.00081615296
0.00025601926
0.035273102
0.035914337
0.036177889
0.036264195
0.036360818
0.036544251
0.036886913
0.03725451
0.037221194
0.036078733
0.033506971
0.030651845
0.028337661
0.026268028
0.024199247
0.022052701
0.019736007
0.017310286
0.014901106
0.012611239
0.010506214
0.0086205345
0.0069610913
0.0055158543
0.0042654063
0.00318901
0.0022669658
0.0014813017
0.00081581256
0.00025591382
0.035269179
0.035910308
0.036174059
0.036260598
0.036357263
0.03654031
0.036881423
0.037248372
0.037216355
0.036075655
0.033502829
0.030645474
0.028330224
0.02626055
0.024192309
0.022046398
0.019730279
0.017305087
0.014896413
0.012607046
0.010502528
0.0086173594
0.0069584163
0.0055136596
0.0042636639
0.0031876844
0.0022660152
0.0014806801
0.00081547231
0.00025580839
0.035265262
0.035906281
0.036170228
0.036257003
0.036353706
0.036536358
0.036875908
0.037242186
0.037211456
0.036072528
0.033498642
0.030639098
0.02832281
0.026253114
0.024185413
0.022040133
0.019724582
0.017299914
0.01489174
0.01260287
0.010498855
0.0086141908
0.0069557433
0.0055114633
0.0042619178
0.0031863543
0.0022650604
0.0014800553
0.00081513001
0.00025570226
0.035261352
0.035902254
0.036166399
0.036253409
0.036350146
0.036532393
0.036870368
0.037235955
0.037206494
0.036069334
0.033494413
0.030632715
0.028315418
0.026245716
0.024178557
0.022033902
0.019718912
0.017294758
0.014887077
0.012598698
0.010495182
0.0086110229
0.0069530711
0.0055092684
0.0042601732
0.0031850256
0.0022641067
0.0014794311
0.00081478811
0.00025559625
0.035257447
0.035898232
0.03616257
0.036249819
0.036346585
0.036528416
0.036864806
0.037229673
0.037201469
0.036066073
0.033490137
0.030626325
0.028308049
0.026238356
0.024171741
0.022027708
0.019713273
0.017289628
0.014882435
0.012594542
0.010491522
0.0086078631
0.0069504038
0.0055070758
0.0042584292
0.0031836965
0.0022631521
0.0014788061
0.00081444552
0.00025548997
0.035253548
0.035894215
0.036158743
0.03624623
0.036343022
0.036524427
0.036859216
0.037223338
0.037196384
0.036062744
0.033485815
0.030619929
0.028300704
0.026231034
0.024164967
0.022021551
0.019707664
0.017284522
0.01487781
0.012590398
0.010487871
0.008604711
0.0069477433
0.0055048894
0.0042566909
0.0031823721
0.0022622012
0.0014781835
0.00081410429
0.00025538409
0.035249656
0.035890203
0.036154917
0.036242644
0.036339458
0.036520425
0.036853603
0.037216958
0.037191233
0.036059354
0.033481456
0.030613531
0.028293382
0.026223752
0.024158236
0.022015433
0.019702092
0.017279448
0.014873214
0.01258628
0.01048424
0.0086015735
0.0069450918
0.0055027074
0.0042549536
0.003181047
0.0022612488
0.0014775595
0.00081376207
0.00025527785
0.035245773
0.035886196
0.036151093
0.03623906
0.036335891
0.036516412
0.036847969
0.037210533
0.037186017
0.036055902
0.03347705
0.030607126
0.028286083
0.026216506
0.024151544
0.022009351
0.019696546
0.017274392
0.014868629
0.012582168
0.010480615
0.008598441
0.006942446
0.0055005316
0.0042532223
0.0031797271
0.0022603004
0.0014769382
0.00081342143
0.00025517211
0.035241898
0.035882193
0.036147271
0.036235477
0.036332322
0.036512386
0.036842316
0.037204063
0.037180736
0.036052375
0.033472599
0.030600715
0.028278807
0.026209298
0.024144892
0.022003304
0.019691031
0.017269362
0.014864064
0.012578072
0.010477001
0.0085953165
0.0069398048
0.0054983576
0.0042514911
0.0031784062
0.0022593508
0.0014763158
0.00081307991
0.00025506604
0.035238031
0.035878195
0.03614345
0.036231895
0.03632875
0.036508347
0.036836644
0.037197542
0.037175392
0.03604878
0.033468108
0.030594301
0.028271554
0.026202127
0.024138278
0.021997292
0.019685545
0.017264354
0.014859516
0.012573988
0.010473396
0.0085921986
0.0069371698
0.0054961897
0.0042497656
0.0031770904
0.002258405
0.001475696
0.00081273988
0.00025496041
0.035234174
0.035874201
0.03613963
0.036228313
0.036325175
0.036504297
0.036830956
0.037190983
0.037169988
0.036045118
0.033463577
0.030587885
0.028264328
0.026194995
0.024131707
0.021991321
0.019680095
0.017259378
0.014854996
0.012569928
0.01046981
0.0085890945
0.0069345429
0.0054940254
0.0042480404
0.0031757732
0.0022574574
0.0014750745
0.00081239868
0.00025485436
0.035230324
0.035870211
0.03613581
0.036224731
0.036321597
0.036500235
0.036825254
0.037184386
0.037164525
0.0360414
0.033459006
0.03058147
0.028257128
0.026187901
0.024125175
0.021985384
0.019674674
0.017254423
0.01485049
0.012565877
0.01046623
0.0085859971
0.0069319232
0.0054918684
0.0042463224
0.003174462
0.0022565144
0.0014744562
0.00081205934
0.0002547489
0.035226483
0.035866223
0.03613199
0.036221148
0.036318013
0.036496161
0.036819539
0.037177743
0.037159006
0.036037619
0.033454396
0.030575056
0.028249955
0.026180844
0.024118683
0.021979484
0.019669285
0.017249496
0.014846007
0.012561845
0.010462665
0.0085829095
0.0069293095
0.0054897145
0.0042446051
0.0031731505
0.0022555705
0.0014738369
0.00081171922
0.00025464314
0.035222646
0.035862238
0.036128169
0.036217564
0.036314425
0.036492073
0.036813815
0.037171068
0.037153432
0.036033772
0.03344976
0.030568645
0.028242809
0.026173825
0.024112231
0.02197362
0.019663926
0.017244593
0.014841542
0.012557826
0.010459111
0.0085798304
0.0069267038
0.0054875682
0.0042428952
0.0031718453
0.0022546316
0.001473221
0.00081138104
0.00025453797
0.035218811
0.035858254
0.036124346
0.036213977
0.03631083
0.036487973
0.036808083
0.037164365
0.037147806
0.036029866
0.03344509
0.030562239
0.028235693
0.026166844
0.024105819
0.021967796
0.019658605
0.017239723
0.014837107
0.012553834
0.010455577
0.0085767668
0.0069241076
0.0054854266
0.0042411863
0.0031705393
0.0022536912
0.0014726037
0.00081104186
0.00025443244
0.035214982
0.03585427
0.03612052
0.036210387
0.036307228
0.036483862
0.036802346
0.037157639
0.037142137
0.036025903
0.03344039
0.03055584
0.028228606
0.0261599
0.024099446
0.021962004
0.01965331
0.017234872
0.014832685
0.012549849
0.010452049
0.0085737087
0.0069215174
0.0054832913
0.0042394838
0.0031692387
0.002252755
0.0014719893
0.00081070435
0.00025432744
0.035211158
0.035850285
0.036116689
0.036206791
0.036303619
0.036479739
0.036796607
0.037150886
0.037136423
0.036021897
0.033435666
0.030549449
0.028221547
0.026152992
0.02409311
0.021956247
0.019648045
0.017230048
0.014828284
0.012545882
0.010448536
0.0085706602
0.0069189329
0.0054811586
0.0042377814
0.0031679371
0.0022518173
0.0014713735
0.0008103658
0.00025422205
0.035207337
0.035846298
0.036112853
0.03620319
0.036300003
0.036475607
0.036790868
0.037144115
0.03713067
0.036017836
0.033430918
0.030543067
0.028214519
0.02614612
0.02408681
0.021950523
0.019642809
0.017225246
0.014823901
0.012541928
0.010445031
0.0085676194
0.0069163556
0.0054790329
0.0042360857
0.0031666412
0.002250884
0.0014707607
0.00081002896
0.00025411718
0.035203518
0.035842308
0.036109011
0.036199582
0.036296379
0.036471467
0.036785132
0.037137331
0.037124882
0.036013725
0.033426148
0.030536696
0.028207521
0.026139285
0.024080549
0.021944835
0.019637606
0.017220474
0.014819545
0.012537998
0.010441546
0.008564593
0.0069137872
0.0054769113
0.0042343907
0.0031653442
0.0022499491
0.0014701463
0.00080969101
0.0002540119
0.035199702
0.035838312
0.03610516
0.036195965
0.036292748
0.036467319
0.036779401
0.037130539
0.037119059
0.036009569
0.033421358
0.030530339
0.028200555
0.026132484
0.024074322
0.021939178
0.019632428
0.01721572
0.0148152
0.012534074
0.010438066
0.0085615708
0.0069112237
0.0054747953
0.0042327015
0.0031640524
0.0022490182
0.0014695348
0.00080935472
0.00025390716
0.035195885
0.035834311
0.036101301
0.036192338
0.03628911
0.036463165
0.036773679
0.037123731
0.037113213
0.036005372
0.033416561
0.030523997
0.028193621
0.026125719
0.02406813
0.021933552
0.019627278
0.017210991
0.014810876
0.012530168
0.010434598
0.0085585577
0.0069086656
0.0054726817
0.0042310124
0.0031627596
0.0022480858
0.0014689218
0.00080901743
0.00025380204
0.035192067
0.035830302
0.036097431
0.036188701
0.036285463
0.036459005
0.036767965
0.037116925
0.037107348
0.036001148
0.033411753
0.030517674
0.028186721
0.02611899
0.024061972
0.021927957
0.019622154
0.017206282
0.014806568
0.012526273
0.01043114
0.0085555519
0.0069061145
0.005470575
0.0042293301
0.0031614727
0.0022471582
0.0014683122
0.00080868199
0.00025369749
0.035188247
0.035826286
0.03609355
0.036185052
0.036281807
0.036454839
0.036762266
0.037110126
0.037101463
0.035996885
0.033406936
0.030511371
0.028179857
0.026112299
0.024055852
0.021922396
0.019617063
0.017201603
0.014802287
0.012522402
0.0104277
0.0085525596
0.006903571
0.0054684711
0.0042276472
0.0031601835
0.0022462278
0.0014677001
0.000808345
0.00025359239
0.035184424
0.03582226
0.036089656
0.03618139
0.036278139
0.036450666
0.036756584
0.037103337
0.037095567
0.035992589
0.033402117
0.030505089
0.028173029
0.026105644
0.024049766
0.021916864
0.019611995
0.017196942
0.014798018
0.012518538
0.010424266
0.0085495723
0.0069010332
0.0054663735
0.0042259705
0.0031588998
0.0022453018
0.0014670912
0.00080800976
0.00025348785
0.035180596
0.035818223
0.036085749
0.036177715
0.036274459
0.036446485
0.036750923
0.037096555
0.037089658
0.035988264
0.033397298
0.030498831
0.028166238
0.026099025
0.024043714
0.021911363
0.019606954
0.017192304
0.014793769
0.012514692
0.010420846
0.0085465955
0.0068985024
0.0054642798
0.0042242954
0.0031576163
0.0022443752
0.0014664814
0.00080767389
0.00025338306
0.035176761
0.03581417
0.036081828
0.036174026
0.036270766
0.036442296
0.036745277
0.037089788
0.037083744
0.035983914
0.033392479
0.030492598
0.028159485
0.026092442
0.024037696
0.021905891
0.019601938
0.017187687
0.014789536
0.012510857
0.010417435
0.0085436255
0.0068959779
0.0054621923
0.0042226264
0.0031563381
0.0022434528
0.0014658745
0.00080733965
0.00025327876
0.03517292
0.035810105
0.036077892
0.036170321
0.03626706
0.036438102
0.036739655
0.037083042
0.037077832
0.035979547
0.033387661
0.03048639
0.028152771
0.026085898
0.024031713
0.021900451
0.019596953
0.017183099
0.01478533
0.012507047
0.010414044
0.0085406709
0.006893463
0.0054601094
0.0042209583
0.0031550588
0.0022425285
0.0014652659
0.00080700418
0.00025317402
0.035169071
0.035806027
0.03607394
0.036166599
0.036263341
0.036433905
0.03673406
0.037076318
0.037071915
0.035975155
0.033382849
0.03048021
0.028146095
0.026079389
0.024025763
0.021895039
0.01959199
0.017178528
0.014781136
0.012503245
0.01041066
0.0085377229
0.0068909552
0.005458034
0.0042192974
0.0031537858
0.0022416092
0.0014646607
0.0008066707
0.00025306991
0.035165212
0.035801935
0.036069972
0.036162861
0.03625961
0.036429706
0.036728492
0.03706961
0.037066001
0.035970737
0.033378049
0.030474057
0.028139459
0.026072917
0.024019844
0.021889653
0.019587051
0.017173978
0.014776962
0.012499461
0.01040729
0.0085347855
0.0068884548
0.005455963
0.0042176387
0.0031525134
0.0022406898
0.001464055
0.00080633673
0.00025296559
0.035161341
0.035797829
0.036065986
0.036159104
0.036255866
0.036425505
0.036722952
0.037062923
0.037060091
0.035966297
0.033373255
0.030467929
0.028132861
0.026066481
0.024013956
0.021884293
0.019582134
0.017169446
0.014772801
0.012495686
0.010403927
0.0085318544
0.0068859604
0.0054538983
0.0042159862
0.0031512468
0.0022397749
0.0014634526
0.00080600463
0.00025286185
0.035157456
0.035793704
0.036061983
0.03615533
0.036252111
0.036421303
0.036717441
0.037056264
0.037054183
0.035961835
0.03336847
0.03046183
0.028126304
0.026060083
0.024008103
0.021878963
0.019577243
0.01716494
0.014768665
0.012491936
0.010400585
0.0085289391
0.0068834764
0.0054518389
0.0042143354
0.0031499795
0.0022388586
0.0014628486
0.00080567141
0.00025275769
0.035153558
0.035789559
0.036057962
0.036151536
0.036248343
0.0364171
0.036711961
0.037049634
0.037048283
0.035957364
0.033363692
0.030455758
0.028119788
0.026053721
0.024002281
0.021873657
0.019572372
0.017160447
0.014764538
0.01248819
0.010397248
0.0085260285
0.0068809981
0.0054497861
0.0042126912
0.0031487183
0.002237947
0.0014622481
0.00080534017
0.00025265418
0.035149646
0.035785398
0.036053924
0.036147724
0.036244563
0.036412897
0.03670651
0.037043032
0.037042391
0.035952883
0.03335891
0.030449713
0.028113311
0.026047395
0.02399649
0.021868377
0.019567522
0.017155972
0.014760427
0.012484459
0.010393922
0.0085231264
0.0068785253
0.005447736
0.0042110477
0.0031474565
0.0022370343
0.0014616462
0.000805008
0.00025255031
0.035145721
0.035781221
0.036049865
0.036143894
0.036240769
0.036408692
0.03670109
0.037036452
0.037036505
0.035948389
0.033354122
0.030443698
0.028106875
0.026041106
0.023990731
0.021863122
0.019562691
0.017151512
0.014756328
0.012480736
0.010390601
0.0085202294
0.0068760579
0.0054456919
0.0042094104
0.0031462003
0.0022361262
0.0014610477
0.00080467775
0.00025244703
0.035141783
0.035777028
0.036045785
0.036140045
0.036236962
0.036404485
0.0366957
0.037029902
0.037030629
0.035943887
0.033349327
0.030437712
0.02810048
0.026034856
0.023985007
0.021857897
0.019557888
0.017147078
0.014752253
0.012477036
0.010387301
0.0085173479
0.0068736003
0.0054436526
0.0042077742
0.0031449432
0.0022352164
0.0014604474
0.00080434623
0.00025234328
0.03513783
0.035772819
0.036041685
0.036136177
0.036233141
0.036400275
0.03669034
0.037023382
0.037024758
0.035939375
0.033344525
0.030431754
0.028094127
0.026028643
0.023979315
0.021852697
0.019553102
0.017142657
0.014748185
0.01247334
0.010384004
0.0085144704
0.0068711485
0.0054416202
0.0042061452
0.0031436926
0.0022343118
0.0014598509
0.0008040169
0.00025224026
0.035133862
0.035768595
0.03603757
0.036132291
0.036229309
0.036396064
0.036685009
0.037016891
0.037018893
0.035934857
0.033339721
0.030425824
0.028087814
0.026022468
0.023973655
0.021847523
0.019548339
0.017138254
0.014744134
0.012469659
0.01038072
0.0085116027
0.0068687032
0.0054395917
0.0042045179
0.0031424424
0.0022334068
0.0014592537
0.00080368705
0.000252137
0.035129879
0.035764355
0.036033438
0.036128388
0.036225463
0.03639185
0.036679706
0.037010421
0.037013038
0.035930335
0.033334907
0.030419922
0.028081543
0.026016331
0.023968029
0.021842375
0.019543596
0.017133866
0.014740094
0.012465985
0.010377441
0.0085087389
0.0068662623
0.0054375681
0.004202896
0.0031411973
0.0022325061
0.0014586596
0.00080335889
0.00025203426
0.035125872
0.035760099
0.036029289
0.036124469
0.036221605
0.036387634
0.03667443
0.037003974
0.037007188
0.035925803
0.033330084
0.030414049
0.028075315
0.026010234
0.023962439
0.021837259
0.019538881
0.017129505
0.014736079
0.012462335
0.010374181
0.0085058894
0.0068638293
0.005435547
0.0042012725
0.0031399486
0.0022316013
0.001458062
0.00080302854
0.00025193076
0.035121848
0.035755828
0.036025125
0.036120533
0.036217735
0.036383416
0.036669178
0.036997554
0.037001344
0.035921258
0.033325255
0.030408204
0.028069128
0.026004174
0.023956881
0.021832167
0.019534183
0.017125153
0.014732068
0.012458686
0.010370923
0.0085030428
0.0068614015
0.0054335328
0.0041996566
0.0031387068
0.0022307023
0.0014574685
0.00080270058
0.00025182804
0.035117808
0.035751542
0.036020945
0.03611658
0.036213854
0.036379195
0.036663951
0.036991159
0.036995506
0.035916701
0.033320417
0.030402386
0.028062982
0.025998152
0.023951357
0.021827103
0.019529507
0.01712082
0.014728073
0.012455052
0.010367677
0.0085002065
0.0068589812
0.0054315233
0.0041980433
0.0031374662
0.0022298035
0.0014568748
0.00080237231
0.00025172517
0.035113752
0.03574724
0.036016751
0.036112613
0.036209961
0.03637497
0.036658747
0.036984789
0.036989669
0.035912132
0.033315571
0.030396597
0.028056877
0.025992168
0.023945866
0.021822065
0.019524852
0.017116501
0.014724088
0.012451424
0.010364436
0.0084973748
0.0068565667
0.005429521
0.0041964377
0.0031362331
0.0022289109
0.0014562857
0.00080204665
0.00025162312
0.035109677
0.035742923
0.036012542
0.036108632
0.036206057
0.036370742
0.036653563
0.036978435
0.036983836
0.035907554
0.033310715
0.030390838
0.028050816
0.025986225
0.023940411
0.02181706
0.019520226
0.01711221
0.014720128
0.012447818
0.010361214
0.0084945567
0.0068541599
0.0054275214
0.0041948313
0.0031349971
0.002228015
0.0014556937
0.00080171918
0.00025152043
0.035105586
0.035738591
0.036008319
0.036104638
0.036202142
0.03636651
0.036648399
0.036972103
0.036978009
0.035902968
0.033305852
0.030385108
0.028044797
0.025980319
0.02393499
0.021812081
0.019515619
0.017107929
0.014716172
0.012444212
0.010357989
0.0084917376
0.0068517545
0.0054255252
0.0041932296
0.0031337662
0.0022271235
0.0014551049
0.00080139363
0.00025141838
0.035101478
0.035734245
0.036004081
0.03610063
0.036198216
0.036362274
0.03664325
0.036965794
0.036972184
0.035898369
0.033300984
0.030379407
0.028038821
0.025974452
0.023929602
0.021807131
0.019511036
0.017103668
0.014712232
0.012440619
0.010354774
0.0084889239
0.0068493507
0.0054235278
0.0041916249
0.0031325313
0.0022262282
0.0014545131
0.00080106614
0.00025131565
0.035097352
0.035729884
0.03599983
0.036096609
0.036194281
0.036358035
0.036638116