/*--------------------------------*- C++ -*----------------------------------*\
| =========                 |                                                 |
| \\      /  F ield         | OpenFOAM: The Open Source CFD Toolbox           |
|  \\    /   O peration     | Version:  v2012                                 |
|   \\  /    A nd           | Website:  www.openfoam.com                      |
|    \\/     M anipulation  |                                                 |
\*---------------------------------------------------------------------------*/
FoamFile
{
    version     2.0;
    format      ascii;
    class       volScalarField;
    location    "150";
    object      nut;
}
// * * * * * * * * * * * * * * * * * * * * * * * * * * * * * * * * * * * * * //

dimensions      [0 2 -1 0 0 0 0];


internalField   nonuniform List<scalar> 
24000
(
4.6599072e-05
1.0975883e-05
4.536915e-05
4.9912419e-05
2.5775652e-05
9.6521894e-06
5.2754064e-06
3.6933639e-06
2.5558702e-06
1.744385e-06
1.373822e-06
1.3066256e-06
1.2265987e-06
8.3748939e-07
8.0634914e-07
6.5725373e-07
4.7271861e-07
3.1925793e-07
1.9882015e-07
1.0527771e-07
4.3289029e-08
1.4875506e-08
4.3605539e-09
1.1024726e-09
2.3768894e-10
4.1919481e-11
5.7065967e-12
7.6961359e-13
3.9816644e-13
4.2599891e-13
4.6617849e-05
1.0856949e-05
4.5381885e-05
4.9905898e-05
2.3165833e-05
9.0518785e-06
5.0512264e-06
3.510513e-06
2.4405182e-06
1.6884463e-06
1.3311383e-06
1.2570924e-06
1.2283269e-06
8.3279403e-07
8.0485873e-07
6.6624404e-07
4.8081475e-07
3.2651445e-07
2.0435949e-07
1.0765344e-07
4.4287157e-08
1.521669e-08
4.4621297e-09
1.1293383e-09
2.4388887e-10
4.3162948e-11
5.9718825e-12
8.9464909e-13
5.2035306e-13
5.5179982e-13
4.6637696e-05
1.0939477e-05
4.5395233e-05
4.9897938e-05
2.5030046e-05
9.554931e-06
5.2439485e-06
3.6276761e-06
2.5271252e-06
1.7381785e-06
1.3599288e-06
1.2771481e-06
1.229818e-06
8.3300685e-07
8.0624028e-07
6.6671117e-07
4.8184194e-07
3.2782557e-07
2.0580418e-07
1.1036335e-07
4.570762e-08
1.5766968e-08
4.6298839e-09
1.1715627e-09
2.5276727e-10
4.4646922e-11
6.1236684e-12
8.6789342e-13
4.7570351e-13
5.0604606e-13
4.6657924e-05
1.0980815e-05
4.5408376e-05
4.9891259e-05
2.5656147e-05
9.6967875e-06
5.2950428e-06
3.6505389e-06
2.5335221e-06
1.7353229e-06
1.3528862e-06
1.2664856e-06
1.2279471e-06
8.3151619e-07
8.06233e-07
6.6864565e-07
4.8250192e-07
3.2778294e-07
2.0541489e-07
1.0968899e-07
4.5290605e-08
1.55863e-08
4.5702598e-09
1.1556866e-09
2.4929411e-10
4.4044809e-11
6.0531934e-12
8.6959538e-13
4.8388795e-13
5.1427059e-13
4.6678326e-05
1.1022358e-05
4.5420893e-05
4.9884904e-05
2.6246684e-05
9.8061361e-06
5.3323669e-06
3.6656955e-06
2.5381257e-06
1.7346615e-06
1.3501084e-06
1.2627625e-06
1.2253664e-06
8.305746e-07
8.0630781e-07
6.6837461e-07
4.8225102e-07
3.2759408e-07
2.0530652e-07
1.0968502e-07
4.5299199e-08
1.5590984e-08
4.5716443e-09
1.1559652e-09
2.4933222e-10
4.404629e-11
6.051211e-12
8.6749662e-13
4.8163851e-13
5.1196043e-13
4.669889e-05
1.1051408e-05
4.5433059e-05
4.9878917e-05
2.6618639e-05
9.8723957e-06
5.3538764e-06
3.6729425e-06
2.5399287e-06
1.7338894e-06
1.3474996e-06
1.2591533e-06
1.2226493e-06
8.2953689e-07
8.0634908e-07
6.6840691e-07
4.8215471e-07
3.2744294e-07
2.0515842e-07
1.0955817e-07
4.5231563e-08
1.5563356e-08
4.5626174e-09
1.1535281e-09
2.4878548e-10
4.3947705e-11
6.0379648e-12
8.6613584e-13
4.812381e-13
5.1151877e-13
4.6719603e-05
1.1076128e-05
4.5444922e-05
4.9873116e-05
2.6877343e-05
9.9231054e-06
5.3715083e-06
3.6791193e-06
2.5422758e-06
1.7337484e-06
1.345455e-06
1.2562026e-06
1.2199362e-06
8.2850853e-07
8.0638601e-07
6.683399e-07
4.8201688e-07
3.2727889e-07
2.0501296e-07
1.0944827e-07
4.5175274e-08
1.5540918e-08
4.5553691e-09
1.1515759e-09
2.483463e-10
4.3867867e-11
6.0268742e-12
8.6466915e-13
4.8052618e-13
5.1076456e-13
4.6740465e-05
1.1095421e-05
4.545654e-05
4.9867344e-05
2.7066124e-05
9.9664084e-06
5.3875173e-06
3.6849387e-06
2.5446457e-06
1.7338661e-06
1.3435989e-06
1.253362e-06
1.2172719e-06
8.2750532e-07
8.0641751e-07
6.6827728e-07
4.8188271e-07
3.2711799e-07
2.0486938e-07
1.0933735e-07
4.5118277e-08
1.5518153e-08
4.5480086e-09
1.1495933e-09
2.4790041e-10
4.3786896e-11
6.0157054e-12
8.632719e-13
4.7990218e-13
5.100997e-13
4.6761476e-05
1.1110106e-05
4.546795e-05
4.9861499e-05
2.7214929e-05
1.0007064e-05
5.4030982e-06
3.6906905e-06
2.5469917e-06
1.7341605e-06
1.3418724e-06
1.2505804e-06
1.214668e-06
8.2653501e-07
8.0644632e-07
6.682103e-07
4.8174788e-07
3.2695972e-07
2.0472993e-07
1.0923076e-07
4.5063765e-08
1.5496428e-08
4.5409924e-09
1.1477039e-09
2.4747542e-10
4.370969e-11
6.0050511e-12
8.6193901e-13
4.7930719e-13
5.0946543e-13
4.6782636e-05
1.1121273e-05
4.5479204e-05
4.9855524e-05
2.7338642e-05
1.0046742e-05
5.4185749e-06
3.6963853e-06
2.5492594e-06
1.7345655e-06
1.3402329e-06
1.2478248e-06
1.2121243e-06
8.2559826e-07
8.0647369e-07
6.681424e-07
4.8161296e-07
3.2680353e-07
2.0459382e-07
1.0912801e-07
4.5011417e-08
1.5475595e-08
4.534264e-09
1.1458916e-09
2.4706757e-10
4.3635571e-11
5.9948262e-12
8.6066753e-13
4.7874501e-13
5.0886518e-13
4.6803948e-05
1.1129619e-05
4.5490332e-05
4.9849358e-05
2.74464e-05
1.0086107e-05
5.4343105e-06
3.7020218e-06
2.5515042e-06
1.7349801e-06
1.3386462e-06
1.2451146e-06
1.2096363e-06
8.2469345e-07
8.0650067e-07
6.6807437e-07
4.8147746e-07
3.2664813e-07
2.0445972e-07
1.0902832e-07
4.4960908e-08
1.5455547e-08
4.5277961e-09
1.1441499e-09
2.4667563e-10
4.3564336e-11
5.9849945e-12
8.5944103e-13
4.7819965e-13
5.082827e-13
4.6825414e-05
1.113558e-05
4.5501324e-05
4.9842956e-05
2.754318e-05
1.0125434e-05
5.4505447e-06
3.7075789e-06
2.5537402e-06
1.7353692e-06
1.3370818e-06
1.2424378e-06
1.2071969e-06
8.2381785e-07
8.0652799e-07
6.6800696e-07
4.8134081e-07
3.2649198e-07
2.0432581e-07
1.0893019e-07
4.4911452e-08
1.5435974e-08
4.5214893e-09
1.1424522e-09
2.4629361e-10
4.3494886e-11
5.9753997e-12
8.5823607e-13
4.7765805e-13
5.0770448e-13
4.6847038e-05
1.1139751e-05
4.5512195e-05
4.9836298e-05
2.7631493e-05
1.0164811e-05
5.4664313e-06
3.7130358e-06
2.5559489e-06
1.7357246e-06
1.3355226e-06
1.2397804e-06
1.2047996e-06
8.2296902e-07
8.0655635e-07
6.6794133e-07
4.8120343e-07
3.2633475e-07
2.0419118e-07
1.0883244e-07
4.4862402e-08
1.5416617e-08
4.5152639e-09
1.1407779e-09
2.4591699e-10
4.3426424e-11
5.9659358e-12
8.5704112e-13
4.7711643e-13
5.0712667e-13
4.6868823e-05
1.114253e-05
4.5522964e-05
4.9829367e-05
2.771304e-05
1.0204233e-05
5.4820916e-06
3.7184093e-06
2.5581191e-06
1.7360414e-06
1.3339613e-06
1.2371353e-06
1.202439e-06
8.2214498e-07
8.0658646e-07
6.6787782e-07
4.8106552e-07
3.2617633e-07
2.0405537e-07
1.0873427e-07
4.4813224e-08
1.5397241e-08
4.5090371e-09
1.1391041e-09
2.4554053e-10
4.3357997e-11
5.9564784e-12
8.5584846e-13
4.7657701e-13
5.0655133e-13
4.6890772e-05
1.1144239e-05
4.5533649e-05
4.982214e-05
2.7788701e-05
1.0243681e-05
5.4976344e-06
3.7237173e-06
2.5602454e-06
1.7363202e-06
1.3323954e-06
1.2344987e-06
1.2001109e-06
8.2134424e-07
8.0661895e-07
6.6781734e-07
4.8092822e-07
3.2601787e-07
2.0391928e-07
1.0863587e-07
4.4763977e-08
1.5377858e-08
4.502814e-09
1.1374321e-09
2.4516462e-10
4.3289693e-11
5.9470506e-12
8.5467203e-13
4.7605389e-13
5.0599273e-13
4.6912887e-05
1.114514e-05
4.5544262e-05
4.9814591e-05
2.7859319e-05
1.0283207e-05
5.5131451e-06
3.7289628e-06
2.5623254e-06
1.7365655e-06
1.330826e-06
1.2318715e-06
1.1978119e-06
8.2056563e-07
8.066544e-07
6.6775989e-07
4.8079212e-07
3.2586019e-07
2.0378377e-07
1.0853789e-07
4.4714989e-08
1.5358593e-08
4.496632e-09
1.1357716e-09
2.4479132e-10
4.3221873e-11
5.937706e-12
8.5352359e-13
4.7555582e-13
5.0545972e-13
4.6935171e-05
1.1145401e-05
4.5554812e-05
4.9806694e-05
2.7926216e-05
1.0322928e-05
5.5286841e-06
3.73416e-06
2.5643675e-06
1.7367825e-06
1.3292539e-06
1.2292557e-06
1.1955397e-06
8.1980833e-07
8.0669334e-07
6.67706e-07
4.8065797e-07
3.2570405e-07
2.0364952e-07
1.084409e-07
4.4666591e-08
1.5339586e-08
4.4905386e-09
1.1341356e-09
2.4442359e-10
4.3155072e-11
5.9285105e-12
8.5240351e-13
4.7507745e-13
5.0494707e-13
4.6957625e-05
1.114515e-05
4.5565309e-05
4.9798426e-05
2.7990524e-05
1.036295e-05
5.5443034e-06
3.7393266e-06
2.5663795e-06
1.7369754e-06
1.3276786e-06
1.2266506e-06
1.1932925e-06
8.1907154e-07
8.0673625e-07
6.6765544e-07
4.8052547e-07
3.2554906e-07
2.0351615e-07
1.083447e-07
4.4618621e-08
1.5320757e-08
4.4845029e-09
1.1325152e-09
2.4405931e-10
4.30889e-11
5.9194076e-12
8.5130133e-13
4.7461159e-13
5.0444741e-13
4.698025e-05
1.1144482e-05
4.5575757e-05
4.9789763e-05
2.8052798e-05
1.0403336e-05
5.5600452e-06
3.7444705e-06
2.5683617e-06
1.7371461e-06
1.3261e-06
1.2240556e-06
1.1910688e-06
8.183546e-07
8.0678354e-07
6.6760859e-07
4.8039493e-07
3.2539539e-07
2.0338375e-07
1.082493e-07
4.4571112e-08
1.5302124e-08
4.4785329e-09
1.1309125e-09
2.43699e-10
4.3023438e-11
5.9104049e-12
8.5021614e-13
4.7415667e-13
5.0395912e-13
4.7003045e-05
1.114348e-05
4.5586162e-05
4.9780684e-05
2.8113525e-05
1.0444153e-05
5.5759466e-06
3.749603e-06
2.570316e-06
1.7372935e-06
1.324516e-06
1.2214704e-06
1.1888674e-06
8.1765691e-07
8.0683551e-07
6.6756538e-07
4.8026629e-07
3.2524288e-07
2.032521e-07
1.0815456e-07
4.4523969e-08
1.5283646e-08
4.4726138e-09
1.1293234e-09
2.433417e-10
4.2958512e-11
5.9014776e-12
8.4914358e-13
4.7370981e-13
5.0347921e-13
4.7026008e-05
1.1142224e-05
4.5596526e-05
4.9771168e-05
2.8173314e-05
1.0485482e-05
5.5920399e-06
3.7547386e-06
2.5722448e-06
1.737417e-06
1.3229243e-06
1.2188931e-06
1.1866875e-06
8.16978e-07
8.0689241e-07
6.6752637e-07
4.8014002e-07
3.2509183e-07
2.0312137e-07
1.0806046e-07
4.447719e-08
1.5265327e-08
4.4667487e-09
1.1277491e-09
2.4298768e-10
4.2894168e-11
5.8926284e-12
8.4808141e-13
4.7326833e-13
5.03005e-13
4.7049139e-05
1.1140762e-05
4.5606852e-05
4.9761194e-05
2.823267e-05
1.0527393e-05
5.6083491e-06
3.7598803e-06
2.5741448e-06
1.7375185e-06
1.3213262e-06
1.2163244e-06
1.1845283e-06
8.163174e-07
8.0695447e-07
6.6749116e-07
4.8001588e-07
3.2494205e-07
2.0299134e-07
1.0796675e-07
4.4430589e-08
1.5247075e-08
4.4609052e-09
1.1261807e-09
2.42635e-10
4.2830077e-11
5.8838196e-12
8.4702871e-13
4.7283418e-13
5.0253847e-13
4.7072432e-05
1.1139131e-05
4.5617142e-05
4.9750744e-05
2.8291912e-05
1.0569962e-05
5.6249048e-06
3.7650406e-06
2.5760185e-06
1.7375989e-06
1.3197232e-06
1.2137661e-06
1.1823896e-06
8.156749e-07
8.0702189e-07
6.6745989e-07
4.7989429e-07
3.2479402e-07
2.0286247e-07
1.0787377e-07
4.4384365e-08
1.5228977e-08
4.4551118e-09
1.1246256e-09
2.4228525e-10
4.2766502e-11
5.8750819e-12
8.4598745e-13
4.7240718e-13
5.0207936e-13
4.7095885e-05
1.1137377e-05
4.5627395e-05
4.9739799e-05
2.8351259e-05
1.0613273e-05
5.6417368e-06
3.7702349e-06
2.5778698e-06
1.7376565e-06
1.318114e-06
1.2112185e-06
1.1802712e-06
8.1505026e-07
8.070948e-07
6.6743252e-07
4.7977527e-07
3.2464775e-07
2.0273474e-07
1.0778152e-07
4.433849e-08
1.5211015e-08
4.4493615e-09
1.1230818e-09
2.4193797e-10
4.2703366e-11
5.8664061e-12
8.4495705e-13
4.7198736e-13
5.0162768e-13
4.711949e-05
1.1135538e-05
4.5637613e-05
4.9728342e-05
2.8411012e-05
1.06574e-05
5.6588676e-06
3.7754653e-06
2.5796969e-06
1.7376898e-06
1.316498e-06
1.2086823e-06
1.1781732e-06
8.1444336e-07
8.0717329e-07
6.6740961e-07
4.7965942e-07
3.2450374e-07
2.0260849e-07
1.0769016e-07
4.4293073e-08
1.5193242e-08
4.443673e-09
1.1215547e-09
2.4159438e-10
4.2640881e-11
5.8578173e-12
8.4393779e-13
4.7157296e-13
5.0118174e-13
4.7143243e-05
1.1133641e-05
4.5647793e-05
4.9716356e-05
2.8471619e-05
1.0702428e-05
5.6763264e-06
3.7807424e-06
2.5815017e-06
1.7377e-06
1.3148757e-06
1.2061579e-06
1.1760957e-06
8.1385401e-07
8.0725742e-07
6.6739067e-07
4.7954639e-07
3.243617e-07
2.0248348e-07
1.0759942e-07
4.4247918e-08
1.5175561e-08
4.438013e-09
1.1200351e-09
2.4125253e-10
4.2578726e-11
5.8492785e-12
8.4292726e-13
4.7116411e-13
5.0074164e-13
4.7167135e-05
1.1131711e-05
4.5657937e-05
4.9703828e-05
2.8533485e-05
1.0748424e-05
5.6941406e-06
3.786077e-06
2.5832857e-06
1.737688e-06
1.3132479e-06
1.2036461e-06
1.174039e-06
8.1328215e-07
8.0734724e-07
6.6737567e-07
4.7943646e-07
3.2422211e-07
2.0236018e-07
1.0750969e-07
4.4203231e-08
1.5158059e-08
4.4324095e-09
1.1185304e-09
2.409139e-10
4.2517133e-11
5.8408148e-12
8.4192699e-13
4.707607e-13
5.0030727e-13
4.7191158e-05
1.1129781e-05
4.5668043e-05
4.9690743e-05
2.8596883e-05
1.0795432e-05
5.7123351e-06
3.7914758e-06
2.5850505e-06
1.737653e-06
1.3116145e-06
1.2011486e-06
1.1720035e-06
8.1272771e-07
8.0744274e-07
6.6736432e-07
4.7932948e-07
3.2408486e-07
2.0223855e-07
1.0742096e-07
4.4159e-08
1.5140723e-08
4.4268566e-09
1.1170387e-09
2.405781e-10
4.2456042e-11
5.8324215e-12
8.4093823e-13
4.7036441e-13
4.9988025e-13
4.7215302e-05
1.1127879e-05
4.567811e-05
4.9677091e-05
2.8662089e-05
1.0843524e-05
5.7309391e-06
3.7969564e-06
2.5868e-06
1.7375928e-06
1.3099735e-06
1.1986643e-06
1.1699897e-06
8.1219066e-07
8.0754386e-07
6.6735697e-07
4.7922577e-07
3.2395028e-07
2.0211888e-07
1.0733346e-07
4.4115374e-08
1.5123625e-08
4.4213793e-09
1.115567e-09
2.4024668e-10
4.2395719e-11
5.8241297e-12
8.3996139e-13
4.6997316e-13
4.9945851e-13
4.7239557e-05
1.1126022e-05
4.5688138e-05
4.9662866e-05
2.8729331e-05
1.0892756e-05
5.7499762e-06
3.8025298e-06
2.5885361e-06
1.7375071e-06
1.3083241e-06
1.1961922e-06
1.1679979e-06
8.1167092e-07
8.0765061e-07
6.6735304e-07
4.7912478e-07
3.2381787e-07
2.0200077e-07
1.0724687e-07
4.4072141e-08
1.5106667e-08
4.4159445e-09
1.1141065e-09
2.3991779e-10
4.233587e-11
5.8159069e-12
8.3899465e-13
4.6958721e-13
4.9904235e-13
4.7263912e-05
1.1124221e-05
4.5698126e-05
4.9648062e-05
2.8798895e-05
1.094316e-05
5.7694627e-06
3.8081984e-06
2.5902577e-06
1.7373956e-06
1.3066666e-06
1.1937341e-06
1.1660285e-06
8.1116857e-07
8.0776301e-07
6.6735239e-07
4.790266e-07
3.2368789e-07
2.0188451e-07
1.0716148e-07
4.4029482e-08
1.5089926e-08
4.4105771e-09
1.1126635e-09
2.3959267e-10
4.2276672e-11
5.8077673e-12
8.380355e-13
4.6920293e-13
4.9862807e-13
4.7288356e-05
1.1122499e-05
4.5708077e-05
4.9632684e-05
2.8871283e-05
1.0994799e-05
5.7894236e-06
3.813974e-06
2.5919653e-06
1.7372569e-06
1.3049998e-06
1.1912897e-06
1.1640821e-06
8.1068365e-07
8.0788103e-07
6.673547e-07
4.7893085e-07
3.2355999e-07
2.0176989e-07
1.0707716e-07
4.3987311e-08
1.5073361e-08
4.4052619e-09
1.1112335e-09
2.3927035e-10
4.2217959e-11
5.7996924e-12
8.3708463e-13
4.6882257e-13
4.9821785e-13
4.7312877e-05
1.1120881e-05
4.571799e-05
4.9616736e-05
2.8946919e-05
1.1047745e-05
5.8098901e-06
3.8198702e-06
2.5936612e-06
1.7370905e-06
1.3033218e-06
1.1888563e-06
1.1621591e-06
8.1021616e-07
8.0800468e-07
6.6736037e-07
4.7883773e-07
3.2343435e-07
2.0165706e-07
1.0699408e-07
4.3945767e-08
1.5057044e-08
4.400025e-09
1.1098242e-09
2.3895249e-10
4.2160021e-11
5.7917156e-12
8.3614181e-13
4.6844315e-13
4.9780875e-13
4.7337461e-05
1.1119387e-05
4.5727868e-05
4.9600231e-05
2.9025972e-05
1.110206e-05
5.8308881e-06
3.8258961e-06
2.5953467e-06
1.7368948e-06
1.3016322e-06
1.1864345e-06
1.1602597e-06
8.0976611e-07
8.0813409e-07
6.6736885e-07
4.7874655e-07
3.2331021e-07
2.0154537e-07
1.0691173e-07
4.3904543e-08
1.5040839e-08
4.3948224e-09
1.1084239e-09
2.3863672e-10
4.2102479e-11
5.7837949e-12
8.3520426e-13
4.6806452e-13
4.9740064e-13
4.7362097e-05
1.1118029e-05
4.5737711e-05
4.9583184e-05
2.9108587e-05
1.1157809e-05
5.852444e-06
3.8320649e-06
2.5970239e-06
1.736668e-06
1.2999304e-06
1.1840251e-06
1.1583842e-06
8.0933368e-07
8.0826936e-07
6.6738017e-07
4.7865746e-07
3.2318778e-07
2.0143506e-07
1.0683039e-07
4.3863821e-08
1.502483e-08
4.3896812e-09
1.1070396e-09
2.3832442e-10
4.2045533e-11
5.7759474e-12
8.3427036e-13
4.6768385e-13
4.9699059e-13
4.738677e-05
1.1116817e-05
4.5747523e-05
4.9565617e-05
2.9194895e-05
1.1215036e-05
5.8745841e-06
3.8383841e-06
2.5986947e-06
1.7364101e-06
1.2982149e-06
1.1816266e-06
1.156533e-06
8.0891893e-07
8.0841058e-07
6.6739427e-07
4.7857022e-07
3.2306677e-07
2.0132582e-07
1.0674981e-07
4.3823455e-08
1.500895e-08
4.3845789e-09
1.1056653e-09
2.3801426e-10
4.1988966e-11
5.7681495e-12
8.3334062e-13
4.6730357e-13
4.9658103e-13
4.7411467e-05
1.1115755e-05
4.5757306e-05
4.9547554e-05
2.9284981e-05
1.1273798e-05
5.897332e-06
3.8448598e-06
2.6003618e-06
1.7361211e-06
1.2964844e-06
1.1792377e-06
1.1547062e-06
8.0852194e-07
8.0855783e-07
6.6741192e-07
4.7848533e-07
3.2294748e-07
2.0121786e-07
1.0667016e-07
4.378357e-08
1.4993265e-08
4.3795388e-09
1.1043073e-09
2.3770763e-10
4.1933002e-11
5.7604238e-12
8.3241371e-13
4.6692054e-13
4.9616876e-13
4.7436174e-05
1.1114846e-05
4.5767064e-05
4.9529025e-05
2.9379088e-05
1.1334163e-05
5.9207143e-06
3.8515077e-06
2.6020275e-06
1.7357992e-06
1.2947372e-06
1.176858e-06
1.1529038e-06
8.0814269e-07
8.0871131e-07
6.6743287e-07
4.7840235e-07
3.2282938e-07
2.0111064e-07
1.0659087e-07
4.374381e-08
1.4977615e-08
4.3745088e-09
1.1029522e-09
2.3740177e-10
4.1877212e-11
5.7527267e-12
8.3148973e-13
4.6653788e-13
4.9575707e-13
4.7460879e-05
1.1114098e-05
4.5776801e-05
4.9510063e-05
2.9477479e-05
1.1396194e-05
5.9447551e-06
3.8583376e-06
2.6036919e-06
1.7354425e-06
1.2929731e-06
1.1744887e-06
1.1511261e-06
8.077813e-07
8.0887115e-07
6.6745727e-07
4.7832169e-07
3.2271301e-07
2.0100468e-07
1.0651245e-07
4.3704473e-08
1.4962128e-08
4.3695294e-09
1.1016101e-09
2.3709869e-10
4.1821887e-11
5.7450857e-12
8.3056905e-13
4.6615439e-13
4.9534458e-13
4.7485567e-05
1.1113506e-05
4.578652e-05
4.9490705e-05
2.9580286e-05
1.1459937e-05
5.9694738e-06
3.8653536e-06
2.6053572e-06
1.7350512e-06
1.2911922e-06
1.1721299e-06
1.1493729e-06
8.074378e-07
8.0903748e-07
6.6748515e-07
4.7824331e-07
3.2259825e-07
2.0089986e-07
1.0643476e-07
4.3665463e-08
1.4946758e-08
4.3645844e-09
1.1002766e-09
2.3679746e-10
4.1766891e-11
5.737489e-12
8.2965348e-13
4.6577283e-13
4.9493414e-13
4.7510227e-05
1.1113043e-05
4.5796225e-05
4.9470991e-05
2.968756e-05
1.1525404e-05
5.9948896e-06
3.8725675e-06
2.6070261e-06
1.734625e-06
1.2893923e-06
1.1697795e-06
1.147644e-06
8.071122e-07
8.0921038e-07
6.6751741e-07
4.7816784e-07
3.224856e-07
2.0079654e-07
1.0635811e-07
4.3626976e-08
1.4931597e-08
4.3597062e-09
1.0989607e-09
2.3649997e-10
4.1712528e-11
5.7299685e-12
8.2874211e-13
4.6538984e-13
4.9452236e-13
4.7534844e-05
1.1112681e-05
4.5805919e-05
4.9450967e-05
2.9799285e-05
1.1592638e-05
6.0210262e-06
3.8799875e-06
2.6087014e-06
1.734166e-06
1.2875734e-06
1.1674367e-06
1.145939e-06
8.0680438e-07
8.0939006e-07
6.6755364e-07
4.7809474e-07
3.2237444e-07
2.0069413e-07
1.0628186e-07
4.3588627e-08
1.4916473e-08
4.3548383e-09
1.0976476e-09
2.3620331e-10
4.165836e-11
5.7224819e-12
8.2783541e-13
4.650087e-13
4.9411269e-13
4.7559405e-05
1.1112394e-05
4.5815606e-05
4.9430678e-05
2.9915462e-05
1.1661681e-05
6.047901e-06
3.8876169e-06
2.6103834e-06
1.7336744e-06
1.2857363e-06
1.1651035e-06
1.1442576e-06
8.0651438e-07
8.0957666e-07
6.6759386e-07
4.7802432e-07
3.2226523e-07
2.0059314e-07
1.0620658e-07
4.3550747e-08
1.4901529e-08
4.3500259e-09
1.0963488e-09
2.3590966e-10
4.1604693e-11
5.7150551e-12
8.2693207e-13
4.646265e-13
4.9370198e-13
4.75839e-05
1.1112199e-05
4.5825289e-05
4.9410164e-05
3.0036162e-05
1.1732516e-05
6.0755165e-06
3.8954653e-06
2.6120732e-06
1.733147e-06
1.2838795e-06
1.1627803e-06
1.1425996e-06
8.0624212e-07
8.0977028e-07
6.676381e-07
4.7795646e-07
3.2215779e-07
2.0049335e-07
1.0613205e-07
4.3513189e-08
1.4886697e-08
4.3452458e-09
1.0950581e-09
2.3561773e-10
4.1551333e-11
5.7076703e-12
8.2603385e-13
4.6424643e-13
4.9329351e-13
4.7608315e-05
1.1112185e-05
4.5834971e-05
4.9389467e-05
3.0161314e-05
1.1805103e-05
6.103867e-06
3.9035372e-06
2.613773e-06
1.7325834e-06
1.282002e-06
1.1604658e-06
1.1409647e-06
8.059876e-07
8.09971e-07
6.6768728e-07
4.7789183e-07
3.2205263e-07
2.0039513e-07
1.0605858e-07
4.3476166e-08
1.4872076e-08
4.3405328e-09
1.0937847e-09
2.3532948e-10
4.1498585e-11
5.7003578e-12
8.2513937e-13
4.6386479e-13
4.9288351e-13
4.7632639e-05
1.1112266e-05
4.5844655e-05
4.9368628e-05
3.0290754e-05
1.1879384e-05
6.1329422e-06
3.9118307e-06
2.6154832e-06
1.731986e-06
1.2801055e-06
1.1581611e-06
1.1393524e-06
8.0575066e-07
8.10179e-07
6.6774103e-07
4.7782994e-07
3.2194917e-07
2.0029794e-07
1.0598557e-07
4.3439287e-08
1.4857492e-08
4.3358288e-09
1.0925138e-09
2.3504192e-10
4.1446008e-11
5.693076e-12
8.2424959e-13
4.6348534e-13
4.9247598e-13
4.7656861e-05
1.1112426e-05
4.5854341e-05
4.934769e-05
3.042457e-05
1.1955286e-05
6.1627254e-06
3.9203526e-06
2.6172079e-06
1.7313577e-06
1.2781912e-06
1.1558675e-06
1.1377624e-06
8.0553133e-07
8.1039442e-07
6.6779939e-07
4.7777115e-07
3.2184795e-07
2.0020234e-07
1.0591362e-07
4.3402916e-08
1.4843099e-08
4.3311826e-09
1.0912574e-09
2.3475736e-10
4.1393917e-11
5.6858511e-12
8.2336291e-13
4.6310489e-13
4.9206747e-13
4.7680971e-05
1.1112675e-05
4.5864032e-05
4.9326696e-05
3.0563083e-05
1.2032748e-05
6.1931931e-06
3.9291076e-06
2.61895e-06
1.7306976e-06
1.2762584e-06
1.1535849e-06
1.1361941e-06
8.0532948e-07
8.1061736e-07
6.6786241e-07
4.7771535e-07
3.2174878e-07
2.0010813e-07
1.0584254e-07
4.3366915e-08
1.4828832e-08
4.3265726e-09
1.0900098e-09
2.3447464e-10
4.1342145e-11
5.6786685e-12
8.2248185e-13
4.6272722e-13
4.9166185e-13
4.7704958e-05
1.1113014e-05
4.5873725e-05
4.930569e-05
3.0706309e-05
1.2111697e-05
6.2243236e-06
3.9380911e-06
2.6207081e-06
1.7300049e-06
1.2743076e-06
1.1513136e-06
1.134647e-06
8.0514505e-07
8.1084791e-07
6.679311e-07
4.7766326e-07
3.2165221e-07
2.0001572e-07
1.0577266e-07
4.3331519e-08
1.4814805e-08
4.3220383e-09
1.0887818e-09
2.3419609e-10
4.1291071e-11
5.6715695e-12
8.2160545e-13
4.6234812e-13
4.9125485e-13
4.7728813e-05
1.1113435e-05
4.5883421e-05
4.9284718e-05
3.0853933e-05
1.2192053e-05
6.2560987e-06
3.9473015e-06
2.6224819e-06
1.7292818e-06
1.2723412e-06
1.1490556e-06
1.1331204e-06
8.0497786e-07
8.1108629e-07
6.6800502e-07
4.7761433e-07
3.2155757e-07
1.9992446e-07
1.0570329e-07
4.3296293e-08
1.4800825e-08
4.3175168e-09
1.0875574e-09
2.3391851e-10
4.1240222e-11
5.6645086e-12
8.2073418e-13
4.6197097e-13
4.9085011e-13
4.7752527e-05
1.1113925e-05
4.5893115e-05
4.9263822e-05
3.1005639e-05
1.2273725e-05
6.2884965e-06
3.9567385e-06
2.6242748e-06
1.7285314e-06
1.2703616e-06
1.1468132e-06
1.131614e-06
8.0482791e-07
8.1133263e-07
6.6808416e-07
4.7756895e-07
3.2146548e-07
1.9983496e-07
1.0563507e-07
4.3261608e-08
1.478705e-08
4.3130585e-09
1.0863492e-09
2.3364435e-10
4.1189943e-11
5.6575159e-12
8.1986655e-13
4.6159242e-13
4.9044401e-13
4.7776091e-05
1.1114474e-05
4.5902804e-05
4.9243041e-05
3.1161018e-05
1.2356607e-05
6.3214931e-06
3.9663958e-06
2.6260884e-06
1.7277559e-06
1.2683696e-06
1.1445871e-06
1.130127e-06
8.0469507e-07
8.1158704e-07
6.6816855e-07
4.7752704e-07
3.2137572e-07
1.9974701e-07
1.0556776e-07
4.3227314e-08
1.4773407e-08
4.3086382e-09
1.0851504e-09
2.3337218e-10
4.1140016e-11
5.6505708e-12
8.1900467e-13
4.6121624e-13
4.9004043e-13
4.7799498e-05
1.1115098e-05
4.5912481e-05
4.922241e-05
3.131966e-05
1.2440648e-05
6.3550732e-06
3.9762702e-06
2.6279188e-06
1.726954e-06
1.2663655e-06
1.1423774e-06
1.1286589e-06
8.0457927e-07
8.1184956e-07
6.6825913e-07
4.7748928e-07
3.2128889e-07
1.9966105e-07
1.0550176e-07
4.3193654e-08
1.4760013e-08
4.3042957e-09
1.0839717e-09
2.3310428e-10
4.1090803e-11
5.6437112e-12
8.1814751e-13
4.6083851e-13
4.8963535e-13
4.7822739e-05
1.1115811e-05
4.592214e-05
4.9201954e-05
3.1481062e-05
1.2525754e-05
6.3892112e-06
3.9863598e-06
2.629766e-06
1.7261268e-06
1.2643514e-06
1.1401861e-06
1.1272092e-06
8.0448035e-07
8.1212041e-07
6.6835547e-07
4.7745515e-07
3.2120432e-07
1.9957645e-07
1.0543636e-07
4.3160204e-08
1.4746677e-08
4.2999683e-09
1.0827969e-09
2.328374e-10
4.1041819e-11
5.6368896e-12
8.1729546e-13
4.6046277e-13
4.8923254e-13
4.7845808e-05
1.1116601e-05
4.5931771e-05
4.9181692e-05
3.1644462e-05
1.2611726e-05
6.4238566e-06
3.996655e-06
2.6316342e-06
1.7252792e-06
1.2623308e-06
1.1380164e-06
1.1257776e-06
8.0439834e-07
8.1239969e-07
6.6845756e-07
4.7742502e-07
3.2112259e-07
1.994938e-07
1.0537223e-07
4.3127343e-08
1.4733561e-08
4.2957082e-09
1.0816393e-09
2.325741e-10
4.0993427e-11
5.6301386e-12
8.1644729e-13
4.6008572e-13
4.8882846e-13
4.7868698e-05
1.1117452e-05
4.5941364e-05
4.9161634e-05
3.1809207e-05
1.2698362e-05
6.4589623e-06
4.0071508e-06
2.6335248e-06
1.724413e-06
1.2603054e-06
1.1358693e-06
1.1243638e-06
8.0433317e-07
8.1268747e-07
6.6856536e-07
4.7739874e-07
3.2104351e-07
1.9941291e-07
1.0530914e-07
4.3094926e-08
1.4720598e-08
4.2914924e-09
1.0804925e-09
2.3231313e-10
4.0945445e-11
5.6234425e-12
8.1560563e-13
4.597113e-13
4.8842715e-13
4.7891404e-05
1.1118372e-05
4.595091e-05
4.9141783e-05
3.1974863e-05
1.2785459e-05
6.4944836e-06
4.0178485e-06
2.6354386e-06
1.7235288e-06
1.2582753e-06
1.133744e-06
1.1229675e-06
8.0428479e-07
8.1298376e-07
6.6867983e-07
4.77377e-07
3.2096758e-07
1.9933413e-07
1.0524741e-07
4.3063172e-08
1.4707894e-08
4.2873579e-09
1.079367e-09
2.3205668e-10
4.0898229e-11
5.6168386e-12
8.1476866e-13
4.5933466e-13
4.8802371e-13
4.791392e-05
1.1119372e-05
4.5960398e-05
4.912214e-05
3.2141629e-05
1.2872821e-05
6.5303564e-06
4.0287422e-06
2.6373754e-06
1.7226286e-06
1.2562428e-06
1.1316422e-06
1.1215883e-06
8.0425306e-07
8.1328873e-07
6.6880051e-07
4.7735925e-07
3.2089411e-07
1.9925681e-07
1.0518631e-07
4.3031635e-08
1.469525e-08
4.2832394e-09
1.0782456e-09
2.3180131e-10
4.0851249e-11
5.6102739e-12
8.1393698e-13
4.5896012e-13
4.8762265e-13
4.7936242e-05
1.1120444e-05
4.5969816e-05
4.9102705e-05
3.2310034e-05
1.2960277e-05
6.5665174e-06
4.0398227e-06
2.6393355e-06
1.7217155e-06
1.2542117e-06
1.1295674e-06
1.1202261e-06
8.0423808e-07
8.136024e-07
6.6892732e-07
4.7734587e-07
3.2082375e-07
1.991816e-07
1.0512654e-07
4.300071e-08
1.4682836e-08
4.2791915e-09
1.0771424e-09
2.3154977e-10
4.0804913e-11
5.6037874e-12
8.1311014e-13
4.5858468e-13
4.8722075e-13
4.7958364e-05
1.1121575e-05
4.5979155e-05
4.9083474e-05
3.2479721e-05
1.3047636e-05
6.6029241e-06
4.0510893e-06
2.6413222e-06
1.7207923e-06
1.2521835e-06
1.1275201e-06
1.1188807e-06
8.0423976e-07
8.1392475e-07
6.6906021e-07
4.7733675e-07
3.2075628e-07
1.9910825e-07
1.0506784e-07
4.2970244e-08
1.4670578e-08
4.2751888e-09
1.0760503e-09
2.3130063e-10
4.0759001e-11
5.5973575e-12
8.1228975e-13
4.5821162e-13
4.8682137e-13
4.7980283e-05
1.1122749e-05
4.5988402e-05
4.9064456e-05
3.2649627e-05
1.3134741e-05
6.6395549e-06
4.0625363e-06
2.643338e-06
1.719861e-06
1.2501582e-06
1.1254998e-06
1.1175522e-06
8.0425805e-07
8.142557e-07
6.6920006e-07
4.7733258e-07
3.2069228e-07
1.990372e-07
1.0501057e-07
4.2940455e-08
1.4658583e-08
4.2712678e-09
1.0749795e-09
2.3105601e-10
4.0713853e-11
5.5910203e-12
8.1147442e-13
4.5783671e-13
4.8642026e-13
4.8001996e-05
1.1123961e-05
4.5997547e-05
4.9045652e-05
3.2819143e-05
1.3221472e-05
6.6763906e-06
4.0741616e-06
2.6453811e-06
1.7189227e-06
1.2481384e-06
1.1235082e-06
1.1162404e-06
8.0429283e-07
8.1459526e-07
6.6934633e-07
4.7733284e-07
3.2063116e-07
1.9896789e-07
1.0495409e-07
4.2910939e-08
1.4646665e-08
4.2673675e-09
1.0739138e-09
2.3081262e-10
4.0668959e-11
5.5847234e-12
8.1066466e-13
4.5746425e-13
4.8602185e-13
4.8023499e-05
1.1125248e-05
4.6006578e-05
4.9027056e-05
3.2987758e-05
1.3307773e-05
6.7134277e-06
4.0859661e-06
2.6474511e-06
1.7179797e-06
1.2461267e-06
1.1215478e-06
1.1149454e-06
8.0434413e-07
8.1494332e-07
6.6949885e-07
4.7733784e-07
3.2057351e-07
1.9890094e-07
1.0489905e-07
4.2882088e-08
1.4634993e-08
4.2635414e-09
1.0728669e-09
2.3057318e-10
4.0624725e-11
5.5785063e-12
8.0986001e-13
4.5709108e-13
4.8562282e-13
4.804479e-05
1.1126625e-05
4.6015486e-05
4.9008659e-05
3.3154977e-05
1.3393589e-05
6.7506486e-06
4.0979402e-06
2.6495503e-06
1.7170361e-06
1.2441244e-06
1.1196183e-06
1.1136673e-06
8.0441182e-07
8.1529971e-07
6.6965739e-07
4.7734737e-07
3.2051908e-07
1.9883612e-07
1.0484524e-07
4.2853756e-08
1.4623498e-08
4.2597667e-09
1.0718327e-09
2.3033642e-10
4.0580956e-11
5.5723508e-12
8.0906254e-13
4.5672076e-13
4.8522675e-13
4.8065866e-05
1.1128062e-05
4.6024258e-05
4.8990444e-05
3.3320238e-05
1.3478785e-05
6.7880225e-06
4.110079e-06
2.6516774e-06
1.7160934e-06
1.2421316e-06
1.1177185e-06
1.1124062e-06
8.0449583e-07
8.1566416e-07
6.6982272e-07
4.7736205e-07
3.2046843e-07
1.9877385e-07
1.0479299e-07
4.2826164e-08
1.461229e-08
4.2560812e-09
1.0708218e-09
2.3010467e-10
4.0538044e-11
5.5663002e-12
8.0827113e-13
4.5634865e-13
4.8482903e-13
4.8086727e-05
1.1129542e-05
4.6032887e-05
4.897239e-05
3.348293e-05
1.3563225e-05
6.8255361e-06
4.1223868e-06
2.6538325e-06
1.7151517e-06
1.2401496e-06
1.1158492e-06
1.1111623e-06
8.0459599e-07
8.1603654e-07
6.6999403e-07
4.7738113e-07
3.2042077e-07
1.9871346e-07
1.0474159e-07
4.279888e-08
1.4601171e-08
4.2524207e-09
1.0698173e-09
2.2987445e-10
4.0495447e-11
5.5602987e-12
8.0748601e-13
4.5597897e-13
4.8443404e-13
4.810737e-05
1.1131082e-05
4.6041362e-05
4.895447e-05
3.3642669e-05
1.3646777e-05
6.8631781e-06
4.1348609e-06
2.6560183e-06
1.714215e-06
1.2381814e-06
1.1140126e-06
1.1099359e-06
8.0471235e-07
8.1641658e-07
6.7017095e-07
4.774048e-07
3.2037664e-07
1.9865553e-07
1.0469172e-07
4.2772299e-08
1.4590316e-08
4.2488408e-09
1.0688335e-09
2.2964867e-10
4.0453604e-11
5.5543899e-12
8.0670652e-13
4.5560799e-13
4.8403785e-13
4.8127795e-05
1.1132678e-05
4.6049676e-05
4.8936657e-05
3.3799646e-05
1.3729321e-05
6.9009224e-06
4.1475125e-06
2.658236e-06
1.7132851e-06
1.2362275e-06
1.1122083e-06
1.1087273e-06
8.048448e-07
8.1680396e-07
6.7035306e-07
4.7743268e-07
3.2033568e-07
1.9859977e-07
1.046431e-07
4.274625e-08
1.4579643e-08
4.2453137e-09
1.0678629e-09
2.2942572e-10
4.0412262e-11
5.5485486e-12
8.0593478e-13
4.5523987e-13
4.8364464e-13
4.8148002e-05
1.1134292e-05
4.6057823e-05
4.8918928e-05
3.3954459e-05
1.3810849e-05
6.9387476e-06
4.1603463e-06
2.6604849e-06
1.7123607e-06
1.2342878e-06
1.1104358e-06
1.1075367e-06
8.0499329e-07
8.171983e-07
6.7054106e-07
4.7746531e-07
3.2029841e-07
1.9854662e-07
1.0459611e-07
4.2720983e-08
1.4569274e-08
4.2418823e-09
1.0669174e-09
2.2920818e-10
4.0371847e-11
5.5428211e-12
8.0516961e-13
4.548698e-13
4.8324963e-13
4.8167989e-05
1.1135901e-05
4.6065797e-05
4.8901263e-05
3.4107016e-05
1.3891387e-05
6.9767706e-06
4.1733488e-06
2.6627658e-06
1.7114445e-06
1.2323634e-06
1.108695e-06
1.1063643e-06
8.0515769e-07
8.1759941e-07
6.7073408e-07
4.7750182e-07
3.2026393e-07
1.9849527e-07
1.0454997e-07
4.2696019e-08
1.4558993e-08
4.2384753e-09
1.0659782e-09
2.2899218e-10
4.0331754e-11