/*--------------------------------*- C++ -*----------------------------------*\
| =========                 |                                                 |
| \\      /  F ield         | OpenFOAM: The Open Source CFD Toolbox           |
|  \\    /   O peration     | Version:  v2012                                 |
|   \\  /    A nd           | Website:  www.openfoam.com                      |
|    \\/     M anipulation  |                                                 |
\*---------------------------------------------------------------------------*/
FoamFile
{
    version     2.0;
    format      ascii;
    class       volScalarField;
    location    "150";
    object      omega;
}
// * * * * * * * * * * * * * * * * * * * * * * * * * * * * * * * * * * * * * //

dimensions      [0 0 -1 0 0 0 0];


internalField   nonuniform List<scalar> 
24000
(
1996.9945
2969.1232
2081.7542
1869.5396
1969.6488
2618.5259
5218.2789
10935.767
21242.581
38420.422
59425.71
78869.003
116668.89
226896.74
432411.27
745808.17
1216782
1756460.6
2374079.8
3175267
4391878.7
6460021.9
10190827
17197430
31039014
60625889
1.322031e+08
3.4320493e+08
1.2114868e+09
8.0953356e+09
1995.7949
2966.889
2080.469
1869.1034
1969.874
2616.3672
5205.2263
10914.119
21190.758
38274.808
59108.701
78301.189
114988.22
222246.98
423856.75
730649.74
1193415.2
1725542
2334900.4
3128703.6
4341328.7
6408200.4
10133844
17118375
30896706
60317681
1.3141462e+08
3.4064479e+08
1.199042e+09
8.0758995e+09
1994.755
2964.6365
2079.4918
1869.0648
1970.8281
2613.2574
5188.7787
10881.285
21112.179
38097.423
58871.826
78044.094
114400.42
220883.56
420801.69
725079.77
1186031.5
1717532.3
2326037.3
3116564.8
4321765.8
6377488.1
10090703
17064094
30833972
60252176
1.3137544e+08
3.4083479e+08
1.2013063e+09
8.0635395e+09
1993.7156
2962.5585
2078.5774
1869.0216
1971.5773
2611.1177
5174.6639
10853.497
21051.937
37980.472
58735.991
77958.653
114383.08
220776.93
420787.5
725086.68
1186465
1718855
2328420.1
3120295
4327602.7
6386518.3
10103895
17082122
30857756
60283526
1.3141505e+08
3.4085504e+08
1.2009258e+09
8.0687357e+09
1992.6722
2960.5497
2077.707
1868.9888
1972.2613
2609.2306
5160.2258
10825.154
20993.116
37864.022
58593.32
77860.175
114353.32
220928.88
420857.15
725039.04
1186290.6
1718494.5
2327779.2
3119233
4326025.4
6384413.1
10101298
17079189
30854764
60280999
1.3141484e+08
3.4086746e+08
1.2010352e+09
8.0683526e+09
1991.623
2958.6118
2076.8799
1868.9648
1972.8775
2607.3953
5145.6861
10796.752
20934.731
37747.317
58451.744
77766.249
114335.93
221118.94
421017.3
725131.61
1186316.1
1718407.7
2327582.6
3118982.1
4325842
6384468.5
10101785
17080338
30856948
60284999
1.314225e+08
3.4088342e+08
1.201069e+09
8.06895e+09
1990.5681
2956.7195
2076.0876
1868.9502
1973.4511
2605.5747
5130.9159
10767.787
20875.528
37630.014
58309.001
77672.752
114319.47
221309.65
421179.69
725225.65
1186331.3
1718283.5
2327314.7
3118612.3
4325458.5
6384192.3
10101757
17080737
30858064
60287437
1.3142777e+08
3.4089606e+08
1.2011067e+09
8.0693112e+09
1989.5073
2954.8643
2075.3227
1868.9459
1973.9837
2603.7739
5115.9064
10738.199
20815.419
37512.524
58165.488
77580.269
114303.38
221493.76
421333.04
725310.11
1186337
1718151.6
2327042.7
3118244.2
4325083.8
6383928.4
10101733
17081102
30859052
60289524
1.314321e+08
3.4090579e+08
1.2011313e+09
8.0696381e+09
1988.4403
2953.0358
2074.579
1868.9518
1974.4868
2601.9872
5100.6679
10707.995
20754.42
37395.009
58021.43
77488.736
114287.11
221668.76
421471.51
725376.23
1186321.9
1718000.1
2326750.7
3117850.4
4324668.8
6383595.4
10101588
17081256
30859660
60290888
1.3143491e+08
3.409117e+08
1.201143e+09
8.0698734e+09
1987.3671
2951.2251
2073.8528
1868.9668
1974.9679
2600.2172
5085.2248
10677.213
20692.598
37277.586
57877.184
77398.297
114270.82
221834.71
421594.72
725423.46
1186286.2
1717832.1
2326444.5
3117439
4324223.5
6383207.6
10101346
17081237
30859955
60291647
1.3143642e+08
3.4091435e+08
1.2011436e+09
8.0700341e+09
1986.2874
2949.4253
2073.1405
1868.9914
1975.4363
2598.4612
5069.6028
10645.895
20630.024
37159.906
57733.832
77309.139
114254.83
221992.6
421704.15
725453.76
1186232.9
1717651.9
2326131
3117018.5
4323757.9
6382776.8
10101023
17081075
30859994
60291924
1.3143693e+08
3.4091453e+08
1.2011361e+09
8.0701332e+09
1985.201
2947.6308
2072.4375
1869.0258
1975.8989
2596.7193
5053.829
10614.083
20566.781
37041.945
57591.856
77221.536
114239.56
222143.79
421801.94
725469.92
1186165.7
1717464.1
2325816.6
3116599.3
4323287.6
6382326.1
10100654
17080826
30859874
60291901
1.3143683e+08
3.4091323e+08
1.201124e+09
8.0701938e+09
1984.1079
2945.8365
2071.7412
1869.0696
1976.3623
2594.9941
5037.9296
10581.811
20502.953
36923.883
57451.313
77135.71
114225.34
222289.41
421889.87
725474.01
1186086.5
1717270.2
2325503.6
3116185.8
4322821.8
6381870.7
10100263
17080528
30859662
60291703
1.3143636e+08
3.4091108e+08
1.2011093e+09
8.0702312e+09
1983.0077
2944.0384
2071.0502
1869.1228
1976.8319
2593.2891
5021.9192
10549.104
20438.613
36805.857
57312.233
77051.817
114212.4
222430.33
421969.27
725467.45
1185996.3
1717070
2325190.8
3115778.6
4322364.8
6381421.9
10099871
17080214
30859405
60291410
1.3143568e+08
3.4090836e+08
1.2010926e+09
8.0702564e+09
1981.9003
2942.2333
2070.363
1869.1856
1977.3121
2591.6079
5005.8101
10515.981
20373.827
36687.969
57174.648
76969.977
114200.87
222567.21
422041.09
725451.01
1185894.7
1716860.9
2324873.2
3115370.9
4321909.9
6380974
10099473
17079878
30859097
60291001
1.3143473e+08
3.4090487e+08
1.2010728e+09
8.0702683e+09
1980.7857
2940.4185
2069.6786
1869.2586
1977.8064
2589.9541
4989.6135
10482.461
20308.649
36570.303
57038.59
76890.281
114190.87
222700.54
422106.05
725425.17
1185781.4
1716640.7
2324546.9
3114956.9
4321449.4
6380518.1
10099058
17079506
30858714
60290431
1.314334e+08
3.4090033e+08
1.2010487e+09
8.0702626e+09
1979.6637
2938.5917
2068.996
1869.3422
1978.3184
2588.3307
4973.3397
10448.556
20243.12
36452.93
56904.101
76812.805
114182.5
222830.73
422164.78
725390.59
1185656.7
1716409.6
2324211.4
3114535
4320980.6
6380049.4
10098620
17079091
30858250
60289700
1.3143172e+08
3.4089485e+08
1.2010211e+09
8.0702376e+09
1978.5342
2936.7511
2068.3145
1869.4369
1978.8508
2586.7416
4956.9982
10414.282
20177.281
36335.925
56771.234
76737.622
114175.84
222958.23
422218.2
725348.66
1185522.8
1716170.6
2323870.5
3114109.9
4320508.9
6379575.2
10098170
17078650
30857732
60288860
1.3142979e+08
3.408887e+08
1.200991e+09
8.0701989e+09
1977.3971
2934.895
2067.6333
1869.5431
1979.4063
2585.1903
4940.5979
10379.648
20111.168
36219.36
56640.044
76664.794
114171
223083.43
422267.09
725300.56
1185381.2
1715925
2323525.4
3113682.5
4320034.9
6379095.9
10097708
17078185
30857168
60287927
1.3142766e+08
3.4088203e+08
1.200959e+09
8.0701492e+09
1976.2526
2933.0221
2066.9519
1869.6613
1979.9877
2583.6806
4924.1472
10344.667
20044.817
36103.302
56510.584
76594.369
114168.04
223206.66
422312.17
725247.32
1185233.4
1715674.5
2323177.8
3113254.9
4319561.4
6378615.3
10097240
17077705
30856573
60286928
1.3142538e+08
3.4087496e+08
1.2009256e+09
8.0700914e+09
1975.1006
2931.1312
2066.27
1869.7921
1980.5972
2582.2164
4907.6543
10309.351
19978.261
35987.82
56382.905
76526.394
114167.03
223328.2
422354
725189.73
1185080
1715419.5
2322827.9
3112827
4319088.5
6378133.9
10096767
17077212
30855951
60285880
1.31423e+08
3.4086765e+08
1.2008913e+09
8.0700275e+09
1973.9413
2929.2213
2065.5871
1869.9357
1981.2372
2580.8014
4891.1273
10273.711
19911.534
35872.974
56257.053
76460.907
114168
223448.28
422393.14
725128.68
1184922.5
1715161.2
2322476.7
3112400
4318618
6377655
10096294
17076716
30855317
60284797
1.3142053e+08
3.4086006e+08
1.2008559e+09
8.0699584e+09
1972.7749
2927.2918
2064.9031
1870.0929
1981.9099
2579.4397
4874.5744
10237.76
19844.666
35758.816
56133.077
76397.934
114170.97
223567.01
422429.84
725064.39
1184760.7
1714899.2
2322123
3111971.8
4318146.5
6377173.8
10095816
17076205
30854654
60283658
1.3141794e+08
3.4085217e+08
1.2008195e+09
8.0698831e+09
1971.6016
2925.3422
2064.2177
1870.264
1982.6177
2578.1351
4858.0035
10201.51
19777.689
35645.402
56011.028
76337.505
114175.97
223684.52
422464.44
724997.43
1184595.4
1714633.9
2321767.4
3111543.1
4317675.2
6376691.8
10095333
17075685
30853969
60282471
1.3141524e+08
3.4084398e+08
1.2007819e+09
8.0698017e+09
1970.4216
2923.3721
2063.5309
1870.4495
1983.3625
2576.8912
4841.4233
10164.975
19710.633
35532.784
55890.949
76279.639
114183
223800.88
422497.14
724928.05
1184426.6
1714365.2
2321409.2
3111112.8
4317202.6
6376207
10094844
17075151
30853259
60281237
1.3141244e+08
3.4083555e+08
1.2007435e+09
8.0697145e+09
1969.2354
2921.3815
2062.8425
1870.65
1984.1467
2575.7114
4824.8426
10128.17
19643.528
35421.009
55772.883
76224.354
114192.06
223916.2
422528.29
724856.96
1184255.6
1714094.7
2321049.9
3110682.8
4316731.3
6375723.6
10094355
17074613
30852536
60279969
1.3140956e+08
3.4082688e+08
1.2007043e+09
8.0696217e+09
1968.0433
2919.3705
2062.1527
1870.866
1984.9724
2574.599
4808.2707
10091.108
19576.401
35310.121
55656.875
76171.663
114203.16
224030.49
422557.99
724784.27
1184082.3
1713821.5
2320688.3
3110250.8
4316257.9
6375237
10093859
17074061
30851787
60278652
1.3140657e+08
3.4081797e+08
1.2006642e+09
8.0695235e+09
1966.8457
2917.3394
2061.4612
1871.0978
1985.8417
2573.5568
4791.7172
10053.806
19509.28
35200.162
55542.966
76121.572
114216.29
224143.82
422586.44
724710.36
1183907.4
1713546.7
2320325.1
3109817.3
4315783
6374747.9
10093358
17073499
30851016
60277288
1.3140348e+08
3.4080877e+08
1.200623e+09
8.0694191e+09
1965.6432
2915.2889
2060.7683
1871.3459
1986.7567
2572.5878
4775.1926
10016.282
19442.193
35091.175
55431.193
76074.088
114231.45
224256.2
422613.73
724635.43
1183731
1713270
2319959.8
3109381.4
4315304.9
6374253.4
10092848
17072921
30850217
60275876
1.3140029e+08
3.4079935e+08
1.2005812e+09
8.0693089e+09
1964.4364
2913.2196
2060.074
1871.6105
1987.7191
2571.6944
4758.7074
9978.5512
19375.168
34983.198
55321.588
76029.218
114248.65
224367.71
422640.15
724560.17
1183554.6
1712993.7
2319595
3108946.1
4314827
6373758.4
10092335
17072336
30849403
60274426
1.3139702e+08
3.4078968e+08
1.2005385e+09
8.0691923e+09
1963.2257
2911.1325
2059.3783
1871.8919
1988.7306
2570.8794
4742.2731
9940.6349
19308.229
34876.262
55214.177
75986.961
114267.86
224478.34
422665.67
724484.53
1183378
1712717.2
2319229.9
3108510
4314347.6
6373260.2
10091816
17071739
30848568
60272940
1.3139367e+08
3.4077988e+08
1.2004956e+09
8.0690716e+09
1962.0119
2909.0289
2058.6813
1872.1901
1989.7924
2570.1456
4725.9019
9902.5529
19241.403
34770.398
55108.982
75947.319
114289.09
224588.12
422690.46
724408.94
1183202
1712441.7
2318865.8
3108074.6
4313868.3
6372761.2
10091295
17071138
30847722
60271431
1.3139028e+08
3.4076994e+08
1.2004522e+09
8.0689472e+09
1960.7955
2906.9099
2057.983
1872.5049
1990.9053
2569.4957
4709.6062
9864.3267
19174.714
34665.631
55006.021
75910.293
114312.35
224697.1
422714.59
724333.52
1183026.9
1712167.4
2318502.3
3107639.1
4313387.3
6372258.6
10090767
17070527
30846862
60269902
1.3138685e+08
3.4075998e+08
1.2004089e+09
8.0688201e+09
1959.5772
2904.7772
2057.2835
1872.8359
1992.0698
2568.9328
4693.3991
9825.9788
19108.185
34561.983
54905.306
75875.877
114337.62
224805.37
422738.31
724258.91
1182854.1
1711896.6
2318142.9
3107207.3
4312909.8
6371759
10090242
17069918
30846004
60268370
1.3138341e+08
3.4074997e+08
1.2003655e+09
8.0686901e+09
1958.3578
2902.6325
2056.5829
1873.1828
1993.2861
2568.4598
4677.2948
9787.5323
19041.839
34459.47
54806.836
75844.049
114364.89
224912.87
422761.45
724184.76
1182682.9
1711628.4
2317786.4
3106778
4312433.5
6371259
10089715
17069304
30845137
60266830
1.3137998e+08
3.4074002e+08
1.2003226e+09
8.0685595e+09
1957.1378
2900.4775
2055.8812
1873.5449
1994.5539
2568.0793
4661.3079
9749.011
18975.696
34358.102
54710.608
75814.783
114394.13
225019.62
422784.06
724111.19
1182513.8
1711363.4
2317433.8
3106352.4
4311960.6
6370761.7
10089190
17068693
30844275
60265295
1.3137655e+08
3.407301e+08
1.2002799e+09
8.0684281e+09
1955.9181
2898.3142
2055.1784
1873.9214
1995.8728
2567.7937
4645.4536
9710.4399
18909.777
34257.889
54616.61
75788.043
114425.32
225125.64
422806.06
724037.98
1182346
1711100.8
2317083.7
3105929.3
4311489.1
6370264.4
10088663
17068079
30843410
60263764
1.3137315e+08
3.4072031e+08
1.2002379e+09
8.0682974e+09
1954.6993
2896.1448
2054.4746
1874.3116
1997.2418
2567.6053
4629.7479
9671.8442
18844.098
34158.835
54524.825
75763.788
114458.45
225230.99
422827.67
723965.63
1182181
1710842.5
2316739
3105511.8
4311023.5
6369773.7
10088145
17067476
30842559
60262250
1.3136977e+08
3.4071056e+08
1.2001961e+09
8.0681658e+09
1953.4821
2893.9712
2053.7697
1874.7143
1998.6596
2567.5161
4614.207
9633.25
18778.68
34060.939
54435.222
75741.966
114493.46
225335.58
422848.58
723893.46
1182017
1710586.2
2316396.7
3105096.5
4310559.4
6369283.1
10087624
17066867
30841701
60260728
1.3136639e+08
3.4070085e+08
1.2001546e+09
8.0680344e+09
1952.2672
2891.7956
2053.0638
1875.1284
2000.1246
2567.5282
4598.8477
9594.684
18713.538
33964.193
54347.766
75722.532
114530.29
225439.43
422868.78
723821.45
1181854.4
1710332.3
2316057.4
3104684.5
4310098.5
6368795.3
10087107
17066262
30840844
60259207
1.3136301e+08
3.4069112e+08
1.2001131e+09
8.0679016e+09
1951.0553
2889.6203
2052.357
1875.5527
2001.635
2567.6427
4583.6873
9556.1727
18648.685
33868.587
54262.418
75705.441
114568.92
225542.5
422888.16
723749.29
1181692.2
1710079.5
2315719.3
3104273.5
4309637.8
6368306.3
10086585
17065651
30839982
60257683
1.3135964e+08
3.4068149e+08
1.2000721e+09
8.0677691e+09
1949.847
2887.4472
2051.6492
1875.9857
2003.1888
2567.8608
4568.7431
9517.7431
18584.137
33774.109
54179.134
75690.645
114609.32
225644.91
422906.98
723677.67
1181532.2
1709830.3
2315385.8
3103867.3
4309182.2
6367823.4
10086072
17065050
30839131
60256170
1.3135627e+08
3.4067182e+08
1.200031e+09
8.0676345e+09
1948.6429
2885.2784
2050.9406
1876.426
2004.7839
2568.1825
4554.0325
9479.4225
18519.905
33680.744
54097.864
75678.074
114651.44
225746.58
422925.02
723605.97
1181372.9
1709582.7
2315054.1
3103462.6
4308727.1
6367339.1
10085554
17064441
30838269
60254643
1.313529e+08
3.4066219e+08
1.1999902e+09
8.0674995e+09
1947.4438
2883.1158
2050.2313
1876.8725
2006.418
2568.6071
4539.5732
9441.2377
18456
33588.472
54018.547
75667.652
114695.22
225847.52
422942.3
723534.28
1181214.7
1709337.4
2314725.5
3103061.2
4308275.1
6366857.5
10085040
17063835
30837408
60253114
1.3134951e+08
3.4065252e+08
1.1999493e+09
8.0673628e+09
1946.2502
2880.9614
2049.5216
1877.3238
2008.0888
2569.1334
4525.3826
9403.2143
18392.431
33497.272
53941.116
75659.305
114740.62
225947.72
422958.71
723462.27
1181056.8
1709093
2314397.9
3102660.6
4307822.9
6366374.1
10084520
17063221
30836539
60251579
1.3134613e+08
3.4064293e+08
1.199909e+09
8.0672262e+09
1945.0626
2878.8172
2048.8116
1877.7786
2009.7937
2569.7596
4511.4774
9365.3774
18329.207
33407.116
53865.501
75652.967
114787.61
226047.24
422974.48
723390.55
1180900.6
1708852
2314074.7
3102264.7
4307376
6365896.8
10084008
17062617
30835678
60250049
1.3134274e+08
3.4063326e+08
1.1998683e+09
8.0670869e+09
1943.8817
2876.6852
2048.1014
1878.2358
2011.5299
2570.4839
4497.8736
9327.7507
18266.33
33317.975
53791.631
75648.565
114836.1
226145.99
422989.34
723318.42
1180744.6
1708612
2313752.9
3101870.2
4306929.4
6365417.9
10083492
17062004
30834806
60248504
1.3133934e+08
3.4062364e+08
1.199828e+09
8.0669472e+09
1942.7079
2874.5671
2047.3913
1878.6938
2013.2942
2571.3047
4484.5864
9290.3568
18203.805
33229.821
53719.439
75646.031
114886.07
226243.98
423003.35
723246.04
1180589.3
1708373.8
2313433.8
3101478.4
4306485.4
6364941.3
10082978
17061393
30833933
60246952
1.3133592e+08
3.4061392e+08
1.1997873e+09
8.0668053e+09
1941.5417
2872.4647
2046.6816
1879.1513
2015.0829
2572.2212
4471.6297
9253.2173
18141.636
33142.624
53648.845
75645.283
114937.45
226341.19
423016.4
723173.07
1180433.8
1708136
2313115.2
3101087.1
4306040.8
6364462.2
10082458
17060774
30833051
60245392
1.313325e+08
3.4060428e+08
1.1997472e+09
8.0666631e+09
1940.3836
2870.3797
2045.9727
1879.6067
2016.8924
2573.2325
4459.0162
9216.3523
18079.824
33056.353
53579.774
75646.24
114990.23
226437.72
423028.84
723100.31
1180279.8
1707901.3
2312801
3100700.6
4305601.7
6363989.4
10081947
17060164
30832178
60243838
1.3132907e+08
3.4059458e+08
1.1997068e+09
8.0665177e+09
1939.2341
2868.3137
2045.2648
1880.0586
2018.7188
2574.3379
4446.7574
9179.7804
18018.371
32970.972
53512.149
75648.805
115044.32
226533.45
423040.35
723027
1180125.8
1707667.4
2312487.8
3100315.1
4305162.5
6363514.8
10081430
17059545
30831291
60242266
1.3132562e+08
3.405849e+08
1.1996667e+09
8.0663715e+09
1938.0934
2866.2683
2044.5584
1880.5057
2020.5582
2575.5364
4434.8635
9143.5183
17957.275
32886.451
53445.901
75652.916
115099.7
226628.41
423051.02
722953.29
1179972.2
1707435
2312177
3099932.1
4304725.8
6363042.5
10080916
17058929
30830405
60240690
1.3132216e+08
3.4057516e+08
1.1996265e+09
8.0662231e+09
1936.9621
2864.2448
2043.854
1880.9471
2022.4073
2576.8265
4423.3431
9107.5816
17896.535
32802.761
53380.961
75658.515
115156.33
226722.58
423060.77
722878.88
1179818
1707202.5
2311866.2
3099549.1
4304288
6362567
10080395
17058302
30829506
60239102
1.313187e+08
3.4056549e+08
1.1995867e+09
8.0660742e+09
1935.8405
2862.2449
2043.1521
1881.3818
2024.2627
2578.2063
4412.2035
9071.9839
17836.149
32719.872
53317.26
75665.551
115214.18
226816.05
423069.95
722804.54
1179665
1706972.9
2311559.4
3099170.4
4303855.1
6362097.2
10079882
17057684
30828616
60237517
1.3131522e+08
3.4055573e+08
1.1995467e+09
8.0659217e+09
1934.7288
2860.2699
2042.4533
1881.8093
2026.1219
2579.6727
4401.4507
9036.7362
17776.114
32637.749
53254.735
75673.969
115273.2
226908.7
423078.29
722729.59
1179511.7
1706743.5
2311253.3
3098792.2
4303421.7
6361624.9
10079363
17057056
30827710
60235911
1.3131172e+08
3.4054599e+08
1.1995069e+09
8.0657681e+09
1933.6274
2858.3213
2041.7583
1882.2297
2027.9831
2581.2221
4391.0887
9001.8476
17716.421
32556.365
53193.327
75683.704
115333.36
227000.55
423085.87
722654.17
1179358.5
1706515.3
2310949
3098416.2
4302990.2
6361154.1
10078845
17056428
30826801
60234295
1.3130818e+08
3.4053615e+08
1.1994668e+09
8.0656115e+09
1932.5366
2856.4003
2041.0676
1882.6429
2029.8446
2582.8502
4381.1198
8967.3248
17657.065
32475.692
53132.981
75694.682
115394.62
227091.56
423092.64
722578.04
1179204.5
1706286.7
2310644.7
3098040.1
4302557.7
6360680.2
10078320
17055790
30825880
60232667
1.3130465e+08
3.4052639e+08
1.1994273e+09
8.0654541e+09
1931.4566
2854.5083
2040.382
1883.0491
2031.7053
2584.5533
4371.5445
8933.1728
17598.041
32395.706
53073.649
75706.852
115456.99
227181.81
423098.94
722502
1179051.6
1706060.6
2310344
3097668.1
4302129.9
6360212
10077803
17055161
30824967
60231041
1.313011e+08
3.4051653e+08
1.1993874e+09
8.0652928e+09
1930.3876
2852.6466
2039.702
1883.4485
2033.5641
2586.3286
4362.3614
8899.3952
17539.34
32316.383
53015.288
75720.168
115520.38
227271.14
423104.46
722425.25
1178898
1705834.3
2310043.4
3097296.2
4301701.1
6359740.7
10077279
17054519
30824036
60229389
1.3129752e+08
3.4050666e+08
1.1993477e+09
8.0651297e+09
1929.3298
2850.8164
2039.0283
1883.8414
2035.4199
2588.1741
4353.5676
8865.9935
17480.955
32237.702
52957.854
75734.628
115584.8
227359.53
423109.29
722348
1178744.1
1705608.6
2309744.3
3096926
4301274.1
6359270.6
10076756
17053877
30823100
60227723
1.3129389e+08
3.4049667e+08
1.1993077e+09
8.0649631e+09
1928.2834
2849.0189
2038.3617
1884.2274
2037.271
2590.091
4345.1585
8832.968
17422.878
32159.654
52901.299
75750.268
115650.21
227446.94
423113.36
722269.96
1178589
1705382
2309444.4
3096555.2
4300845.4
6358797
10076225
17053224
30822149
60226039
1.3129026e+08
3.4048673e+08
1.1992681e+09
8.064795e+09
1927.2485
2847.2552
2037.7026
1884.607
2039.1164
2592.0795
4337.1283
8800.318
17365.104
32082.237
52845.578
75767.002
115716.6
227533.4
423116.99
722191.9
1178434.6
1705157
2309147.1
3096187.4
4300420.5
6358327.8
10075700
17052576
30821200
60224348
1.3128659e+08
3.4047665e+08
1.1992281e+09
8.0646224e+09
1926.2253
2845.5263
2037.0518
1884.9803
2040.9555
2594.1396
4329.47
8768.0422
17307.627
32005.458
52790.641
75784.745
115783.93
227618.77
423119.93
722113.2
1178279.2
1704931.2
2308849.2
3095818.9
4299993.8
6357854.7
10075168
17051916
30820232
60222629
1.3128288e+08
3.4046655e+08
1.1991881e+09
8.0644475e+09
1925.2138
2843.8333
2036.4098
1885.348
2042.7883
2596.2711
4322.1761
8736.1387
17250.444
31929.282
52736.505
75803.465
115852.19
227703.06
423122.32
722034.18
1178123.6
1704705.7
2308552.1
3095451.4
4299567.9
6357381.7
10074635
17051253
30819256
60220887
1.3127912e+08
3.4045628e+08
1.1991477e+09
8.0642683e+09
1924.2142
2842.1774
2035.7773
1885.7109
2044.6154
2598.4732
4315.2383
8704.6046
17193.548
31853.707
52683.124
75823.155
115921.37
227786.18
423124.1
721954.63
1177966.9
1704479
2308253.7
3095082.5
4299139.7
6356904.5
10074094
17050577
30818263
60219126
1.3127533e+08
3.4044605e+08
1.1991076e+09
8.0640868e+09
1923.2264
2840.5594
2035.1548
1886.07
2046.4381
2600.7445
4308.6477
8673.4361
17136.936
31778.725
52630.512
75843.859
115991.46
227868.17
423125.6
721875.43
1177811.2
1704254.2
2307957.8
3094716.4
4298714.9
6356431.3
10073558
17049907
30817273
60217357
1.3127151e+08
3.4043567e+08
1.1990671e+09
8.0639003e+09
1922.2507
2838.9805
2034.5427
1886.4266
2048.2581
2603.0829
4302.3946
8642.6293
17080.606
31704.323
52578.689
75865.548
116062.41
227948.86
423126.51
721795.91
1177655.1
1704028.9
2307661.4
3094349.4
4298287.9
6355953.8
10073014
17049223
30816261
60215556
1.3126765e+08
3.4042526e+08
1.1990267e+09
8.0637109e+09
1921.2868
2837.4415
2033.9416
1886.7818
2050.0776
2605.4864
4296.4688
8612.1803
17024.553
31630.496
52527.656
75888.172
116134.2
228028.21
423126.9
721716.3
1177499
1703804
2307365.8
3093983.3
4297861.7
6355476.4
10072469
17048536
30815241
60213735
1.3126373e+08
3.404147e+08
1.1989859e+09
8.0635169e+09
1920.3349
2835.9432
2033.3517
1887.1368
2051.8983
2607.9539
4290.8599
8582.0854
16968.776
31557.234
52477.425
75911.653
116206.81
228106.1
423126.59
721636.23
1177342
1703578
2307068.7
3093615.3
4297432.4
6354993.5
10071914
17047834
30814199
60211885
1.3125978e+08
3.4040415e+08
1.1989455e+09
8.0633202e+09
1919.3949
2834.4865
2032.7735
1887.4922
2053.7218
2610.4855
4285.557
8552.3417
16913.274
31484.531
52428.007
75936.001
116280.25
228182.57
423125.9
721556.57
1177186.3
1703354
2306774.2
3093250.3
4297006.5
6354514.8
10071365
17047138
30813161
60210028
1.3125579e+08
3.4039344e+08
1.1989045e+09
8.0631179e+09
1918.4669
2833.0718
2032.207
1887.8488
2055.5494
2613.0813
4280.5497
8522.946
16858.046
31412.377
52379.419
75961.307
116354.46
228257.43
423124.44
721476.53
1177030.1
1703129.4
2306478.8
3092883.6
4296577.6
6354030.5
10070806
17046425
30812097
60208131
1.3125175e+08
3.4038268e+08
1.1988636e+09
8.0629123e+09
1917.5506
2831.6999
2031.6526
1888.2073
2057.3828
2615.7415
4275.8273
8493.8956
16803.094
31340.767
52331.679
75987.574
116429.45
228330.63
423122.26
721396.31
1176874
1702905.4
2306184.3
3092518
4296149.3
6353546
10070245
17045709
30811022
60206210
1.3124764e+08
3.4037174e+08
1.1988223e+09
8.0627015e+09
1916.6461
2830.371
2031.1104
1888.5684
2059.2235
2618.4662
4271.3792
8465.1885
16748.418
31269.696
52284.808
76014.787
116505.19
228402.09
423119.21
721315.62
1176717.3
1702680.5
2305888.4
3092150.4
4295718
6353056.2
10069675
17044978
30809929
60204268
1.3124352e+08
3.4036087e+08
1.1987815e+09
8.0624885e+09
1915.7534
2829.0856
2030.5804
1888.9325
2061.0729
2621.2553
4267.1948
8436.8227
16694.02
31199.16
52238.828
76042.896
116581.69
228471.89
423115.67
721235.44
1176562.4
1702458.4
2305595.7
3091786.3
4295291
6352571.9
10069113
17044256
30808844
60202323
1.3123936e+08
3.4034984e+08
1.1987401e+09
8.0622703e+09
1914.8722
2827.844
2030.0627
1889.3
2062.9323
2624.1084
4263.2641
8408.7968
16639.902
31129.161
52193.752
76071.828
116658.9
228539.8
423111.18
721154.78
1176407.2
1702236
2305302.3
3091420.3
4294860.2
6352081.2
10068539
17043515
30807728
60200333
1.3123514e+08
3.4033873e+08
1.1986987e+09
8.0620483e+09
1914.0026
2826.6461
2029.5572
1889.6715
2064.8032
2627.0248
4259.5771
8381.1097
16586.068
31059.7
52149.596
76101.613
116736.82
228605.79
423105.73
721073.74
1176252.3
1702014.6
2305009.9
3091055.1
4294429.4
6351589.4
10067963
17042770
30806602
60198315
1.3123084e+08
3.403274e+08
1.1986566e+09
8.0618206e+09
1913.1445
2825.4922
2029.0639
1890.0473
2066.6871
2630.0027
4256.1244
8353.7611
16532.522
30990.78
52106.37
76132.281
116815.43
228669.86
423099.15
720991.83
1176096.5
1701792.3
2304716.3
3090687.6
4293994.5
6351090.2
10067375
17042006
30805449
60196263
1.3122651e+08
3.4031609e+08
1.1986149e+09
8.0615899e+09
1912.2976
2824.3821
2028.5827
1890.4278
2068.5853
2633.0408
4252.8967
8326.7511
16479.27
30922.407
52064.087
76163.864
116894.73
228731.92
423091.79
720910.05
1175942.4
1701573.3
2304426.9
3090324.6
4293564.3
6350596.3
10066793
17041248
30804300
60194202
1.3122213e+08
3.4030459e+08
1.1985726e+09
8.0613532e+09
1911.462
2823.3157
2028.1134
1890.8127
2070.4982
2636.1392
4249.8852
8300.0796
16426.317
30854.591
52022.749
76196.362
116974.7
228791.83
423083.29
720827.4
1175787.7
1701354.3
2304137.6
3089961.1
4293131.9
6350097.4
10066202
17040475
30803126
60192107
1.312177e+08
3.4029308e+08
1.1985305e+09
8.0611139e+09
1910.6375
2822.2926
2027.6558
1891.2011
2072.4247
2639.3006
4247.0815
8273.7475
16373.671
30787.338
51982.362
76229.712
117055.32
228849.99
423073.74
720744.05
1175632.9
1701136.4
2303850.2
3089599.9
4292701.6
6349600
10065611
17039700
30801947
60189992
1.3121322e+08
3.402814e+08
1.1984879e+09
8.0608702e+09
1909.824
2821.3127
2027.21
1891.593
2074.3651
2642.5232
4244.4777
8247.7565
16321.339
30720.657
51942.929
76263.763
117136.57
228905.85
423062.91
720659.45
1175476.8
1700917.2
2303561.3
3089236.5
4292267.8
6349096.5
10065010
17038910
30800746
60187852
1.3120872e+08
3.4026975e+08
1.1984457e+09
8.0606242e+09
1909.0214
2820.3755
2026.7756
1891.9884
2076.3186
2645.8058
4242.066
8222.1084
16269.329
30654.553
51904.457
76298.539
117218.47
228959.21
423051.22
720574.6
1175321.8
1700700.6
2303276.3
3088877.6
4291839.1
6348599
10064416
17038128
30799551
60185704
1.3120417e+08
3.4025789e+08
1.1984026e+09
8.0603722e+09
1908.2296
2819.4807
2026.3523
1892.3871
2078.2847
2649.1455
4239.8393
8196.8056
16217.649
30589.035
51866.948
76334.087
117301
229011.14
423038.38
720488.45
1175165.5
1700483.3
2302990.6
3088517.6
4291407.6
6348095.6
10063812
17037328
30798326
60183512
1.3119955e+08
3.4024597e+08
1.1983597e+09
8.060117e+09
1907.4485
2818.6278
2025.9398
1892.7894
2080.2637
2652.5376
4237.7902
8171.8511
16166.306
30524.114
51830.408
76370.442
117384.14
229061.04
423024.43
720401.17
1175008.3
1700266.2
2302706.1
3088159.2
4290977.7
6347593.5
10063207
17036526
30797095
60181299
1.3119487e+08
3.4023385e+08
1.198316e+09
8.0598567e+09
1906.6779
2817.8164
2025.5378
1893.1951
2082.2555
2655.9772
4235.912
8147.2485
16115.312
30459.797
51794.842
76407.67
117467.87
229107.3
423009.2
720312.3
1174849.1
1700047
2302419.5
3087798.5
4290544.1
6347084.6
10062591
17035705
30795838
60179054
1.3119017e+08
3.4022175e+08
1.1982728e+09
8.0595941e+09
1905.9178
2817.0459
2025.146
1893.6037
2084.2593
2659.4599
4234.1981
8123.0023
16064.676
30396.095
51760.257
76445.921
117552.26
229152.35
422993.23
720222.9
1174690.3
1699829.6
2302136
3087441.7
4290115.6
6346582.2
10061984
17034895
30794588
60176802
1.311854e+08
3.4020944e+08
1.1982287e+09
8.0593256e+09
1905.1681
2816.3158
2024.7639
1894.0145
2086.2736
2662.9822
4232.6425
8099.1175
16014.408
30333.018
51726.653
76484.929
117637.26
229196.63
422976.18
720132.02
1174529.6
1699610.5
2301850.8
3087082.8
4289683.5
6346073.5
10061365
17034065
30793309
60174508
1.3118059e+08
3.4019707e+08
1.1981847e+09
8.0590543e+09
1904.4287
2815.6255
2024.3911
1894.426
2088.2956
2666.5421
4231.2396
8075.5995
15964.521
30270.577
51694.043
76524.583
117722.89
229240.24
422958.28
720040.09
1174368
1699391.2
2301566.2
3086724.9
4289252.4
6345565.3
10060746
17033234
30792023
60172191
1.311757e+08
3.4018449e+08
1.1981399e+09
8.0587779e+09
1903.6994
2814.9745
2024.0272
1894.8372
2090.3227
2670.1347
4229.9843
8052.4549
15915.027
30208.782
51662.431
76564.848
117809.14
229283.2
422939.48
719946.77
1174204.3
1699169.6
2301278.9
3086364
4288817
6345050.4
10060116
17032385
30790713
60169844
1.3117078e+08
3.4017193e+08
1.1980955e+09
8.0584993e+09
1902.9802
2814.362
2023.6717
1895.2471
2092.3526
2673.7543
4228.8719
8029.6897
15865.939
30147.641
51631.824
76605.747
117896.02
229325.68
422920.28
719853.23
1174041.3
1698950
2300994.7
3086006.5
4288386
6344541
10059494
17031545
30789409
60167491
1.3116581e+08
3.4015914e+08
1.1980501e+09
8.0582151e+09
1902.271
2813.7874
2023.3242
1895.6545
2094.3823
2677.395
4227.8968
8007.3103
15817.268
30087.163
51602.223
76647.355
117983.51
229367.58
422900.37
719758.6
1173876.8
1698729.2
2300709.2
3085647.2
4287951.2
6344024.8
10058859
17030687
30788076
60165094
1.3116079e+08
3.4014629e+08
1.1980048e+09
8.0579279e+09
1901.5717
2813.2501
2022.984
1896.0576
2096.4081
2681.052
4227.0537
7985.3237
15769.027
30027.36
51573.637
76689.672
118071.61
229408.96
422879.91
719663.2
1173711.6
1698508.3
2300424.6
3085289.3
4287518
6343509.7
10058225
17029826
30786736
60162676
1.311557e+08
3.4013325e+08
1.1979588e+09
8.0576361e+09
1900.8823
2812.7494
2022.6508
1896.4543
2098.4254
2684.7213
4226.3368
7963.7372
15721.229
29968.242
51546.074
76732.692
118160.33
229449.78
422858.81
719566.65
1173544.4
1698285.4
2300137.7
3084928.8
4287081
6342988.6
10057581
17028950
30785374
60160231
1.3115058e+08
3.4012022e+08
1.1979131e+09
8.0573425e+09
1900.2026
2812.2846
2022.3238
1896.8423
2100.4292
2688.3986
4225.7402
7942.5582
15673.886
29909.819
51519.535
76776.401
118249.65
229490.18
422837.48
719469.94
1173377.6
1698063.7
2299853
3084571.2
4286647.9
6342472.2
10056943
17028080
30784015
60157774
1.3114541e+08
3.4010697e+08
1.1978665e+09
8.0570435e+09
1899.5325
2811.8553
2022.0026
1897.2198
2102.4149
2692.0769
4225.2578
7921.7937
15627.01
29852.098
51494.022
76820.77
118339.55
229530.07
422815.65
719372.3
1173209.3
1697840.4