/*--------------------------------*- C++ -*----------------------------------*\
| =========                 |                                                 |
| \\      /  F ield         | OpenFOAM: The Open Source CFD Toolbox           |
|  \\    /   O peration     | Version:  v2012                                 |
|   \\  /    A nd           | Website:  www.openfoam.com                      |
|    \\/     M anipulation  |                                                 |
\*---------------------------------------------------------------------------*/
FoamFile
{
    version     2.0;
    format      ascii;
    class       surfaceScalarField;
    location    "150";
    object      phi;
}
// * * * * * * * * * * * * * * * * * * * * * * * * * * * * * * * * * * * * * //

dimensions      [1 0 -1 0 0 0 0];
oriented        oriented;


internalField   nonuniform List<scalar> 
47170
(
5.8401472e-09
-3.4168533e-05
9.3954613e-09
-2.8477984e-05
1.0485096e-08
-2.3344e-05
1.1721173e-08
-1.9215647e-05
1.3610903e-08
-1.5837583e-05
1.4924082e-08
-1.2987098e-05
1.5648326e-08
-1.0349976e-05
1.4695774e-08
-7.9539796e-06
1.0276904e-08
-5.8667788e-06
2.48941e-09
-4.0975622e-06
-5.5144637e-09
-2.7079345e-06
-1.0847027e-08
-1.7723943e-06
-1.3326534e-08
-1.1842672e-06
-1.3685057e-08
-8.0423079e-07
-1.2815224e-08
-5.5521669e-07
-1.1299975e-08
-3.8780526e-07
-9.5132742e-09
-2.7028623e-07
-7.7218519e-09
-1.8671955e-07
-6.083249e-09
-1.278018e-07
-4.6642012e-09
-8.6708635e-08
-3.473489e-09
-5.8313534e-08
-2.4988919e-09
-3.8843519e-08
-1.7233735e-09
-2.5576633e-08
-1.1281e-09
-1.658325e-08
-6.9119481e-10
-1.0523126e-08
-3.8747279e-10
-6.4711532e-09
-1.9015041e-10
-3.7908161e-09
-7.3966723e-11
-2.0445636e-09
-1.6445483e-11
-9.3089053e-10
-2.4177142e-10
4.7817585e-09
-3.4173314e-05
7.7102698e-09
-2.8480913e-05
8.2411929e-09
-2.334453e-05
7.6827547e-09
-1.9215088e-05
6.3420838e-09
-1.5836242e-05
4.5162041e-09
-1.2985272e-05
3.1338015e-09
-1.0348593e-05
1.2509506e-09
-7.9520968e-06
-1.2615022e-09
-5.864265e-06
-3.6340944e-09
-4.0951898e-06
-5.1620369e-09
-2.7064054e-06
-5.7186789e-09
-1.771838e-06
-5.9365508e-09
-1.1840485e-06
-5.9347346e-09
-8.0423299e-07
-5.7146706e-09
-5.5543619e-07
-5.2910485e-09
-3.8822924e-07
-4.7243119e-09
-2.708526e-07
-4.081514e-09
-1.8736266e-07
-3.4051448e-09
-1.2847793e-07
-2.7323799e-09
-8.7381665e-08
-2.0992262e-09
-5.8946534e-08
-1.5388527e-09
-3.9404068e-08
-1.0708935e-09
-2.6044493e-08
-7.0246043e-10
-1.6951793e-08
-4.2866485e-10
-1.0796957e-08
-2.3770998e-10
-6.6621462e-09
-1.1446883e-10
-3.9142584e-09
-4.3007892e-11
-2.1161902e-09
-9.0123149e-12
-9.6500261e-10
-2.5078374e-10
4.3226721e-09
-3.4177637e-05
6.6727623e-09
-2.8483263e-05
6.8744713e-09
-2.3344732e-05
5.7759437e-09
-1.9213989e-05
3.7748655e-09
-1.583424e-05
1.7437681e-09
-1.2983241e-05
7.3300164e-10
-1.0347581e-05
-5.8936038e-12
-7.951358e-06
-5.3879718e-10
-5.8637314e-06
-5.4370696e-10
-4.0951852e-06
-2.6654871e-10
-2.7066818e-06
-2.7355732e-11
-1.7720776e-06
1.2325986e-10
-1.1841985e-06
2.5053733e-10
-8.0436074e-07
4.4070925e-10
-5.5562579e-07
6.5671159e-10
-3.8844574e-07
8.4199857e-10
-2.7103747e-07
9.4688728e-10
-1.8746807e-07
9.5478925e-10
-1.2848563e-07
8.762852e-10
-8.730364e-08
7.4108243e-10
-5.8811311e-08
5.8097917e-10
-3.9244347e-08
4.241828e-10
-2.5887776e-08
2.8786081e-10
-1.6815718e-08
1.8022267e-10
-1.0689414e-08
1.0194674e-10
-6.5840248e-09
4.9962501e-11
-3.8623145e-09
1.9096048e-11
-2.0853839e-09
4.0698866e-12
-9.5001881e-10
-2.4671386e-10
3.8063201e-09
-3.4181444e-05
5.6814131e-09
-2.8485138e-05
5.5215357e-09
-2.3344572e-05
4.104842e-09
-1.9212573e-05
1.9195016e-09
-1.5832055e-05
-9.581222e-11
-1.2981226e-05
-8.3034679e-10
-1.0346846e-05
-7.8730337e-10
-7.9514012e-06
-3.2892259e-10
-5.8641892e-06
3.884893e-10
-4.095903e-06
8.584192e-10
-2.7071512e-06
9.4014128e-10
-1.7721598e-06
7.63326e-10
-1.184021e-06
5.2481509e-10
-8.0412267e-07
3.55359e-10
-5.5545578e-07
2.4052863e-10
-3.8833138e-07
1.5460971e-10
-2.7095113e-07
8.2662821e-11
-1.8739665e-07
2.5395638e-11
-1.2842814e-07
-1.5640558e-11
-8.7263134e-08
-3.7872114e-11
-5.8789041e-08
-4.4960755e-11
-3.9237707e-08
-4.1161543e-11
-2.5891626e-08
-3.2441114e-11
-1.6824759e-08
-2.2366013e-11
-1.0699619e-08
-1.3530447e-11
-6.5930302e-09
-6.9567966e-12
-3.8690836e-09
-2.7679534e-12
-2.0897465e-09
-6.4070642e-13
-9.5226836e-10
-2.4735457e-10
3.3859036e-09
-3.418483e-05
4.8967716e-09
-2.8486649e-05
4.4955191e-09
-2.3344171e-05
2.9566242e-09
-1.9211034e-05
7.923842e-10
-1.582989e-05
-1.1282912e-09
-1.2979305e-05
-1.6064381e-09
-1.0346368e-05
-1.1646843e-09
-7.9518432e-06
-3.2370419e-10
-5.8650298e-06
6.6523538e-10
-4.0968922e-06
1.2467979e-09
-2.7077322e-06
1.3324048e-09
-1.7722458e-06
1.1145594e-09
-1.1838027e-06
8.1423047e-10
-8.0382284e-07
5.9065572e-10
-5.5523181e-07
4.3445347e-10
-3.881757e-07
3.2107856e-10
-2.7083751e-07
2.3573167e-10
-1.8731178e-07
1.7205109e-10
-1.2836437e-07
1.2405815e-10
-8.7215518e-08
8.8457393e-11
-5.8753454e-08
6.1278519e-11
-3.9210763e-08
4.0985558e-11
-2.5871388e-08
2.6033171e-11
-1.6809932e-08
1.5525812e-11
-1.0689154e-08
8.432757e-12
-6.5860014e-09
4.0193771e-12
-3.8646676e-09
1.5029453e-12
-2.0872361e-09
3.144834e-13
-9.510841e-10
-2.4704009e-10
3.0339176e-09
-3.4187864e-05
4.2690477e-09
-2.8487885e-05
3.6958968e-09
-2.3343597e-05
2.1136067e-09
-1.9209451e-05
1.1158908e-11
-1.5827788e-05
-1.8546834e-09
-1.2977439e-05
-2.1842689e-09
-1.0346038e-05
-1.5398867e-09
-7.9524878e-06
-5.2350142e-10
-5.8660458e-06
6.0011999e-10
-4.0980162e-06
1.2581459e-09
-2.7083898e-06
1.3655776e-09
-1.7723536e-06
1.1414841e-09
-1.1835782e-06
8.2759135e-10
-8.0350935e-07
5.904208e-10
-5.5499426e-07
4.229283e-10
-3.8800862e-07
3.0143496e-10
-2.7071574e-07
2.1151224e-10
-1.8722227e-07
1.4626162e-10
-1.2829897e-07
9.876941e-11
-8.7168377e-08
6.5381493e-11
-5.872002e-08
4.1888275e-11
-3.9187535e-08
2.6127374e-11
-2.5855632e-08
1.5544323e-11
-1.6799523e-08
8.8211932e-12
-1.0682487e-08
4.6267494e-12
-6.5818963e-09
2.1386085e-12
-3.8622776e-09
7.7601941e-13
-2.0859636e-09
1.4397774e-13
-9.5051548e-10
-2.4689611e-10
2.7474692e-09
-3.4190612e-05
3.7773876e-09
-2.8488915e-05
3.0837993e-09
-2.3342903e-05
1.4843563e-09
-1.9207852e-05
-5.6588377e-10
-1.5825737e-05
-2.4017876e-09
-1.2975603e-05
-2.6513447e-09
-1.0345788e-05
-1.8918848e-09
-7.9532474e-06
-7.7196252e-10
-5.8671654e-06
4.3479979e-10
-4.0992232e-06
1.1672292e-09
-2.7091218e-06
1.3157092e-09
-1.7725025e-06
1.1110629e-09
-1.1833731e-06
8.0854764e-10
-8.0320722e-07
5.7814977e-10
-5.5476352e-07
4.1481365e-10
-3.8784569e-07
2.9612139e-10
-2.7059681e-07
2.0844543e-10
-1.8713499e-07
1.4499603e-10
-1.2823541e-07
9.8864858e-11
-8.7122594e-08
6.6274112e-11
-5.8687407e-08
4.3123342e-11
-3.9164628e-08
2.728504e-11
-2.5839823e-08
1.6471806e-11
-1.6788854e-08
9.4340169e-12
-1.0675491e-08
4.9500259e-12
-6.5774851e-09
2.2976866e-12
-3.8596501e-09
8.3870996e-13
-2.0845351e-09
1.673024e-13
-9.498655e-10
-2.4672881e-10
2.5169655e-09
-3.4193129e-05
3.3923697e-09
-2.848979e-05
2.6104221e-09
-2.3342121e-05
9.9925046e-10
-1.920624e-05
-1.0185477e-09
-1.5823719e-05
-2.8424139e-09
-1.297378e-05
-3.0462908e-09
-1.0345584e-05
-2.2111369e-09
-7.9540827e-06
-1.0163505e-09
-5.8683599e-06
2.4550911e-10
-4.1004853e-06
1.0468696e-09
-2.7099228e-06
1.2378396e-09
-1.7726937e-06
1.0568761e-09
-1.1831918e-06
7.7107294e-10
-8.0292173e-07
5.5171794e-10
-5.5454383e-07
3.9573832e-10
-3.8769004e-07
2.8213966e-10
-2.7048296e-07
1.9820174e-10
-1.8705141e-07
1.3755996e-10
-1.2817462e-07
9.3549177e-11
-8.7078921e-08
6.2581978e-11
-5.8656396e-08
4.0604931e-11
-3.9142923e-08
2.5683343e-11
-2.5824903e-08
1.5482849e-11
-1.6778831e-08
8.8964838e-12
-1.066895e-08
4.6986565e-12
-6.5733803e-09
2.1923941e-12
-3.8572164e-09
8.0172912e-13
-2.0832177e-09
1.5309209e-13
-9.4926841e-10
-2.4657572e-10
2.3322028e-09
-3.4195461e-05
3.0904008e-09
-2.8490548e-05
2.2406157e-09
-2.3341271e-05
6.1707461e-10
-1.9204617e-05
-1.3835507e-09
-1.5821719e-05
-3.2051477e-09
-1.2971958e-05
-3.3802419e-09
-1.0345409e-05
-2.4886534e-09
-7.9549745e-06
-1.2337228e-09
-5.8696145e-06
6.5377717e-11
-4.1017847e-06
9.283703e-10
-2.7107855e-06
1.1585668e-09
-1.7729242e-06
1.0006357e-09
-1.1830336e-06
7.3209762e-10
-8.0265353e-07
5.2449011e-10
-5.5433598e-07
3.7647308e-10
-3.8754236e-07
2.6834802e-10
-2.7037467e-07
1.8845537e-10
-1.8697179e-07
1.3058021e-10
-1.2811667e-07
8.8719842e-11
-8.7037254e-08
5.9145525e-11
-5.8626805e-08
3.8331329e-11
-3.9122212e-08
2.4077288e-11
-2.5810669e-08
1.4463959e-11
-1.6769271e-08
8.21018e-12
-1.0662715e-08
4.2725644e-12
-6.5694718e-09
1.9627282e-12
-3.8549013e-09
7.1179696e-13
-2.0819656e-09
1.4542117e-13
-9.4870121e-10
-2.464303e-10
2.1838945e-09
-3.4197645e-05
2.8519556e-09
-2.8491216e-05
1.9498414e-09
-2.3340369e-05
3.1196958e-10
-1.9202979e-05
-1.6818142e-09
-1.5819725e-05
-3.5058498e-09
-1.2970134e-05
-3.6608935e-09
-1.0345254e-05
-2.7240258e-09
-7.9559115e-06
-1.4188384e-09
-5.8709195e-06
-9.0834733e-11
-4.1031129e-06
8.2307228e-10
-2.7116991e-06
1.087953e-09
-1.7731894e-06
9.5031813e-10
-1.1828957e-06
6.9741646e-10
-8.024009e-07
5.0065337e-10
-5.5413897e-07
3.6006379e-10
-3.8740203e-07
2.5713895e-10
-2.7027155e-07
1.8090617e-10
-1.868958e-07
1.2558924e-10
-1.2806123e-07
8.5453465e-11
-8.6997313e-08
5.7089279e-11
-5.8598395e-08
3.7034624e-11
-3.9102306e-08
2.3351505e-11
-2.5796979e-08
1.4060371e-11
-1.6760078e-08
8.0409551e-12
-1.0656724e-08
4.2381272e-12
-6.5657196e-09
1.9653196e-12
-3.8526816e-09
7.1652344e-13
-2.0807664e-09
1.3895535e-13
-9.481586e-10
-2.4629134e-10
2.0644047e-09
-3.419971e-05
2.6621132e-09
-2.8491814e-05
1.7205919e-09
-2.3339428e-05
6.753572e-11
-1.9201326e-05
-1.9262755e-09
-1.5817731e-05
-3.7551484e-09
-1.2968305e-05
-3.8947756e-09
-1.0345114e-05
-2.9200713e-09
-7.9568863e-06
-1.5728778e-09
-5.8722664e-06
-2.1669162e-10
-4.1044693e-06
7.3596264e-10
-2.7126515e-06
1.0302431e-09
-1.7734839e-06
9.0883549e-10
-1.182774e-06
6.6882638e-10
-8.0216115e-07
4.8119236e-10
-5.5395109e-07
3.4687157e-10
-3.8726797e-07
2.483524e-10
-2.7017286e-07
1.751754e-10
-1.8682288e-07
1.2190509e-10
-1.2800787e-07
8.3098296e-11
-8.6958722e-08
5.5576661e-11
-5.8570851e-08
3.6073648e-11
-3.9082951e-08
2.2717427e-11
-2.5783637e-08
1.3653183e-11
-1.67511e-08
7.7710187e-12
-1.0650865e-08
4.0552352e-12
-6.5620472e-09
1.8697542e-12
-3.8505079e-09
6.7930253e-13
-2.0795916e-09
1.3636896e-13
-9.4762662e-10
-2.4615498e-10
1.9684431e-09
-3.4201678e-05
2.5107364e-09
-2.8492357e-05
1.5388962e-09
-2.3338456e-05
-1.2828311e-10
-1.9199658e-05
-2.1256882e-09
-1.5815733e-05
-3.9610993e-09
-1.296647e-05
-4.087469e-09
-1.0344988e-05
-3.0800427e-09
-7.9578939e-06
-1.6982838e-09
-5.873648e-06
-3.1484301e-10
-4.1058529e-06
6.6678929e-10
-2.7136329e-06
9.8421224e-10
-1.7738015e-06
8.7479961e-10
-1.1826643e-06
6.4515626e-10
-8.0193173e-07
4.6507388e-10
-5.5377076e-07
3.3606673e-10
-3.8713919e-07
2.4131497e-10
-2.7007792e-07
1.707668e-10
-1.8675257e-07
1.1926675e-10
-1.2795626e-07
8.1575866e-11
-8.692125e-08
5.4759418e-11
-5.8543995e-08
3.5649655e-11
-3.9064015e-08
2.2557575e-11
-2.5770541e-08
1.360861e-11
-1.6742264e-08
7.7992092e-12
-1.0645083e-08
4.1085159e-12
-6.5584151e-09
1.9088427e-12
-3.8483543e-09
6.9665494e-13
-2.078426e-09
1.3553801e-13
-9.4709833e-10
-2.4601944e-10
1.8914183e-09
-3.420357e-05
2.3905577e-09
-2.8492856e-05
1.3946848e-09
-2.333746e-05
-2.8467464e-10
-1.9197979e-05
-2.2872273e-09
-1.5813731e-05
-4.1301118e-09
-1.2964627e-05
-4.244961e-09
-1.0344873e-05
-3.2094235e-09
-7.9589295e-06
-1.7976755e-09
-5.8750595e-06
-3.9041208e-10
-4.1072604e-06
6.1246995e-10
-2.7146356e-06
9.4716934e-10
-1.7741365e-06
8.4643636e-10
-1.1825633e-06
6.2504951e-10
-8.0171058e-07
4.5113969e-10
-5.5359667e-07
3.2652643e-10
-3.8701482e-07
2.3487146e-10
-2.6998614e-07
1.6657687e-10
-1.8668447e-07
1.1652116e-10
-1.2790614e-07
7.9856382e-11
-8.6884734e-08
5.3615628e-11
-5.8517739e-08
3.4962367e-11
-3.9045447e-08
2.207396e-11
-2.5757665e-08
1.331467e-11
-1.673355e-08
7.5828705e-12
-1.0639365e-08
3.9588668e-12
-6.554815e-09
1.822369e-12
-3.8462154e-09
6.6213573e-13
-2.0772665e-09
1.3527295e-13
-9.4657197e-10
-2.4588417e-10
1.8295153e-09
-3.42054e-05
2.2954258e-09
-2.8493322e-05
1.281042e-09
-2.3336445e-05
-4.0844705e-10
-1.9196289e-05
-2.4168804e-09
-1.5811722e-05
-4.2680097e-09
-1.2962776e-05
-4.3733757e-09
-1.0344767e-05
-3.3139825e-09
-7.959989e-06
-1.8750521e-09
-5.8764983e-06
-4.4829325e-10
-4.1086873e-06
5.7010732e-10
-2.7156537e-06
9.17332e-10
-1.7744839e-06
8.2255235e-10
-1.1824683e-06
6.076618e-10
-8.0149588e-07
4.3881113e-10
-5.5342763e-07
3.1787902e-10
-3.8689407e-07
2.2890855e-10
-2.6989702e-07
1.6255681e-10
-1.866183e-07
1.138763e-10
-1.2785738e-07
7.8150775e-11
-8.6849154e-08
5.2574735e-11
-5.8492128e-08
3.4337123e-11
-3.902732e-08
2.1761973e-11
-2.5745084e-08
1.3166717e-11
-1.6725026e-08
7.5486167e-12
-1.0633767e-08
3.9831883e-12
-6.5512865e-09
1.8477985e-12
-3.8441174e-09
6.7442706e-13
-2.0761285e-09
1.3279989e-13
-9.460552e-10
-2.4575137e-10
1.7796732e-09
-3.420718e-05
2.2205077e-09
-2.8493763e-05
1.1924877e-09
-2.3335417e-05
-5.0515378e-10
-1.9194592e-05
-2.5199979e-09
-1.5809707e-05
-4.3802624e-09
-1.2960916e-05
-4.477766e-09
-1.0344669e-05
-3.3975826e-09
-7.9610693e-06
-1.9347534e-09
-5.877961e-06
-4.9271861e-10
-4.1101294e-06
5.3673378e-10
-2.716683e-06
8.9298353e-10
-1.7748403e-06
8.0193305e-10
-1.1823771e-06
5.9202288e-10
-8.0128615e-07
4.2722522e-10
-5.5326267e-07
3.0929187e-10
-3.8677633e-07
2.2257847e-10
-2.6981019e-07
1.5793249e-10
-1.8655384e-07
1.105147e-10
-1.278099e-07
7.5746996e-11
-8.6814545e-08
5.0875273e-11
-5.8467242e-08
3.3173758e-11
-3.9009727e-08
2.0966511e-11
-2.5732888e-08
1.2649917e-11
-1.6716773e-08
7.2182784e-12
-1.0628352e-08
3.7771135e-12
-6.5478768e-09
1.7432244e-12
-3.8420918e-09
6.341207e-13
-2.0750305e-09
1.2799736e-13
-9.4555693e-10
-2.4562337e-10
1.7396456e-09
-3.4208919e-05
2.1619913e-09
-2.8494185e-05
1.1246714e-09
-2.333438e-05
-5.796572e-10
-1.9192887e-05
-2.6014778e-09
-1.5807685e-05
-4.4714651e-09
-1.2959046e-05
-4.5623488e-09
-1.0344578e-05
-3.4641397e-09
-7.9621676e-06
-1.9807809e-09
-5.8794442e-06
-5.2688241e-10
-4.1115834e-06
5.1027046e-10
-2.71772e-06
8.7279098e-10
-1.7752029e-06
7.8383814e-10
-1.182288e-06
5.7777449e-10
-8.0108024e-07
4.1632759e-10
-5.5310105e-07
3.0100434e-10
-3.8666116e-07
2.1633918e-10
-2.697254e-07
1.5332009e-10
-1.8649099e-07
1.0717014e-10
-1.2776368e-07
7.3380172e-11
-8.6780912e-08
4.9259808e-11
-5.8443101e-08
3.2095465e-11
-3.8992686e-08
2.0298669e-11
-2.5721093e-08
1.2251848e-11
-1.6708804e-08
7.0112752e-12
-1.0623132e-08
3.68923e-12
-6.5445949e-09
1.7096616e-12
-3.8401448e-09
6.2320103e-13
-2.0739765e-09
1.2257857e-13
-9.4507917e-10
-2.4550079e-10
1.7074957e-09
-3.4210627e-05
2.1168706e-09
-2.8494594e-05
1.073878e-09
-2.3333337e-05
-6.3596476e-10
-1.9191177e-05
-2.6654006e-09
-1.5805656e-05
-4.545242e-09
-1.2957166e-05
-4.6305771e-09
-1.0344493e-05
-3.5171084e-09
-7.9632811e-06
-2.0160844e-09
-5.8809451e-06
-5.5249563e-10
-4.1130472e-06
4.8989953e-10
-2.7187622e-06
8.5655859e-10
-1.7755697e-06
7.6853755e-10
-1.1821998e-06
5.654513e-10
-8.0087732e-07
4.068027e-10
-5.529423e-07
2.9372161e-10
-3.8654825e-07
2.1082183e-10
-2.6964242e-07
1.4925515e-10
-1.8642957e-07
1.04174e-10
-1.2771856e-07
7.1256971e-11
-8.6748113e-08
4.7739438e-11
-5.8419577e-08
3.1075908e-11
-3.8976096e-08
1.9588888e-11
-2.5709618e-08
1.1800175e-11
-1.6701057e-08
6.7136329e-12
-1.061806e-08
3.5043701e-12
-6.541408e-09
1.6122802e-12
-3.8382553e-09
5.8537779e-13
-2.0729542e-09
1.1887777e-13
-9.4461586e-10
-2.4538192e-10
1.6817388e-09
-3.4212309e-05
2.0826639e-09
-2.8494995e-05
1.0370946e-09
-2.3332291e-05
-6.7712232e-10
-1.9189463e-05
-2.7146678e-09
-1.5803618e-05
-4.6046531e-09
-1.2955276e-05
-4.6854584e-09
-1.0344412e-05
-3.558843e-09
-7.9644078e-06
-2.0424946e-09
-5.8824613e-06
-5.7114309e-10
-4.1145186e-06
4.7480436e-10
-2.7198081e-06
8.4392759e-10
-1.775939e-06
7.5587024e-10
-1.1821116e-06
5.5511664e-10
-8.0067669e-07
3.9885966e-10
-5.5278592e-07
2.8774088e-10
-3.8643726e-07
2.0642526e-10
-2.6956101e-07
1.4610638e-10
-1.8636938e-07
1.0197442e-10
-1.2767437e-07
6.9754005e-11
-8.6716002e-08
4.675667e-11
-5.8396558e-08
3.0444801e-11
-3.8959868e-08
1.9225865e-11
-2.5698399e-08
1.1598391e-11
-1.6693485e-08
6.6257335e-12
-1.0613104e-08
3.4843415e-12
-6.5382953e-09
1.611e-12
-3.8364104e-09
5.8660584e-13
-2.0719563e-09
1.159211e-13
-9.4416381e-10
-2.45266e-10
1.6611378e-09
-3.421397e-05
2.0574712e-09
-2.8495392e-05
1.0118526e-09
-2.3331245e-05
-7.0564155e-10
-1.9187746e-05
-2.7515155e-09
-1.5801572e-05
-4.6521618e-09
-1.2953375e-05
-4.7292709e-09
-1.0344335e-05
-3.5912053e-09
-7.9655459e-06
-2.0615252e-09
-5.8839909e-06
-5.8387194e-10
-4.1159963e-06
4.6420152e-10
-2.720856e-06
8.3424963e-10
-1.7763091e-06
7.4542306e-10
-1.1820227e-06
5.464193e-10
-8.0047781e-07
3.9214464e-10
-5.5263154e-07
2.8266151e-10
-3.8632791e-07
2.0268077e-10
-2.6948096e-07
1.4341807e-10
-1.8631025e-07
1.0007036e-10
-1.2763098e-07
6.8432325e-11
-8.6684484e-08
4.5845788e-11
-5.8373966e-08
2.9835681e-11
-3.8943943e-08
1.8814627e-11
-2.568739e-08
1.1334024e-11
-1.6686056e-08
6.4562047e-12
-1.0608242e-08
3.3761044e-12
-6.5352417e-09
1.5561958e-12
-3.8346007e-09
5.6550864e-13
-2.0709774e-09
1.1373267e-13
-9.437204e-10
-2.4515226e-10
1.6448656e-09
-3.4215615e-05
2.0396635e-09
-2.8495786e-05
9.962617e-10
-2.3330202e-05
-7.2359845e-10
-1.9186026e-05
-2.7779653e-09
-1.5799518e-05
-4.6897651e-09
-1.2951464e-05
-4.7639892e-09
-1.0344261e-05
-3.6161225e-09
-7.9666938e-06
-2.074587e-09
-5.8855323e-06
-5.9120421e-10
-4.1174798e-06
4.573495e-10
-2.7219044e-06
8.2704016e-10
-1.7766789e-06
7.3676135e-10
-1.1819323e-06
5.3898272e-10
-8.0028012e-07
3.8631936e-10
-5.5247876e-07
2.7823162e-10
-3.8621993e-07
1.9941219e-10
-2.6940204e-07
1.410892e-10
-1.8625205e-07
9.8455598e-11
-1.275883e-07
6.7345129e-11
-8.6653482e-08
4.5142178e-11
-5.8351747e-08
2.9393583e-11
-3.892828e-08
1.8560433e-11
-2.5676559e-08
1.1193692e-11
-1.6678744e-08
6.392311e-12
-1.0603456e-08
3.3567032e-12
-6.5322347e-09
1.5515175e-12
-3.8328182e-09
5.6473218e-13
-2.0700132e-09
1.1203345e-13
-9.4328356e-10
-2.4504023e-10
1.6322097e-09
-3.4217247e-05
2.0280236e-09
-2.8496182e-05
9.8877866e-10
-2.3329163e-05
-7.3260123e-10
-1.9184304e-05
-2.7956527e-09
-1.5797455e-05
-4.718878e-09
-1.294954e-05
-4.7910495e-09
-1.0344188e-05
-3.6345474e-09
-7.9678504e-06
-2.0826514e-09
-5.8870841e-06
-5.9455131e-10
-4.118968e-06
4.5364035e-10
-2.7229525e-06
8.2191145e-10
-1.7770473e-06
7.2968344e-10
-1.18184e-06
5.3270015e-10
-8.0008326e-07
3.8134439e-10
-5.5232733e-07
2.7441874e-10
-3.8611313e-07
1.9655943e-10
-2.6932414e-07
1.3903023e-10
-1.8619464e-07
9.6971874e-11
-1.2754622e-07
6.6320158e-11
-8.6622932e-08
4.4425299e-11
-5.8329856e-08
2.8926305e-11
-3.8912849e-08
1.8240213e-11
-2.5665887e-08
1.0993814e-11
-1.6671538e-08
6.2598306e-12
-1.0598738e-08
3.2734314e-12
-6.5292693e-09
1.5073399e-12
-3.8310599e-09
5.4760684e-13
-2.0690619e-09
1.1060297e-13
-9.4285249e-10
-2.4492963e-10
1.6225313e-09
-3.421887e-05
2.0215532e-09
-2.8496581e-05
9.88191e-10
-2.3328129e-05
-7.3394696e-10
-1.9182582e-05
-2.8057813e-09
-1.5795383e-05
-4.7407189e-09
-1.2947605e-05
-4.8116621e-09
-1.0344117e-05
-3.6473644e-09
-7.9690147e-06
-2.086606e-09
-5.8886448e-06
-5.9529131e-10
-4.1204594e-06
4.5185308e-10
-2.7239996e-06
8.1796415e-10
-1.7774135e-06
7.2340534e-10
-1.1817453e-06
5.2692457e-10
-7.9988687e-07
3.76692e-10
-5.5217702e-07
2.7080393e-10
-3.8600734e-07
1.9383661e-10
-2.6924711e-07
1.3704334e-10
-1.8613795e-07
9.5556489e-11
-1.275047e-07
6.5335508e-11
-8.6592796e-08
4.3765284e-11
-5.8308272e-08
2.8494053e-11
-3.8897641e-08
1.7980401e-11
-2.5655375e-08
1.0843316e-11
-1.6664441e-08
6.1856611e-12
-1.0594092e-08
3.2454851e-12
-6.5263504e-09
1.497592e-12
-3.8293295e-09
5.4467146e-13
-2.0681259e-09
1.0875031e-13
-9.4242845e-10
-2.4482088e-10
1.6152704e-09
-3.4220485e-05
2.0194603e-09
-2.8496986e-05
9.9344867e-10
-2.3327103e-05
-7.2864756e-10
-1.918086e-05
-2.8092988e-09
-1.5793302e-05
-4.7564297e-09
-1.2945658e-05
-4.827095e-09
-1.0344047e-05
-3.656025e-09
-7.9701858e-06
-2.0870642e-09
-5.8902137e-06
-5.933567e-10
-4.1219531e-06
4.5197199e-10
-2.7250448e-06
8.1535004e-10
-1.7777769e-06
7.1806234e-10
-1.1816479e-06
5.2184193e-10
-7.9969074e-07
3.7256986e-10
-5.5202767e-07
2.6758e-10
-3.8590245e-07
1.9140029e-10
-2.6917088e-07
1.3525659e-10
-1.8608191e-07
9.4268983e-11
-1.2746368e-07
6.4431464e-11
-8.656305e-08
4.3137215e-11
-5.8286976e-08
2.8072404e-11
-3.8882642e-08
1.769832e-11
-2.564501e-08
1.0664863e-11
-1.6657448e-08
6.0749054e-12
-1.0589515e-08
3.1788435e-12
-6.5234751e-09
1.4648395e-12
-3.8276252e-09
5.3228725e-13
-2.067204e-09
1.071265e-13
-9.4201082e-10
-2.4471375e-10
1.610183e-09
-3.4222095e-05
2.0211261e-09
-2.8497397e-05
1.003739e-09
-2.3326086e-05
-7.1752561e-10
-1.9179139e-05
-2.8069726e-09
-1.5791213e-05
-4.7667177e-09
-1.2943699e-05
-4.8378518e-09
-1.0343976e-05
-3.6611186e-09
-7.9713626e-06
-2.0846442e-09
-5.8917901e-06
-5.8908382e-10
-4.1234487e-06
4.5340709e-10
-2.7260873e-06
8.1338594e-10
-1.778137e-06
7.1316776e-10
-1.1815476e-06
5.1705504e-10
-7.994947e-07
3.6862248e-10
-5.5187915e-07
2.6446051e-10
-3.8579837e-07
1.8901418e-10
-2.6909536e-07
1.334957e-10
-1.8602647e-07
9.3003835e-11
-1.2742315e-07
6.3551114e-11
-8.6533676e-08
4.2542818e-11
-5.8265957e-08
2.768439e-11
-3.8867843e-08
1.7458145e-11
-2.5634786e-08
1.0523211e-11
-1.665055e-08
5.9988523e-12
-1.0585001e-08
3.1444791e-12
-6.5206399e-09
1.4500906e-12
-3.8259449e-09
5.2717163e-13
-2.0662952e-09
1.0557689e-13
-9.4159915e-10
-2.4460818e-10
1.6070814e-09
-3.4223703e-05
2.0261134e-09
-2.8497816e-05
1.0184399e-09
-2.3325078e-05
-7.0128798e-10
-1.9177419e-05
-2.7994964e-09
-1.5789115e-05
-4.7721223e-09
-1.2941726e-05
-4.8445006e-09
-1.0343903e-05
-3.6630579e-09
-7.9725441e-06
-2.0799369e-09
-5.8933732e-06
-5.8311756e-10
-4.1249456e-06
4.5595767e-10
-2.7271263e-06
8.1216026e-10
-1.7784933e-06
7.0897965e-10
-1.1814444e-06
5.1286449e-10
-7.9929869e-07
3.6520095e-10
-5.5173144e-07
2.617942e-10
-3.8569507e-07
1.8700271e-10
-2.6902055e-07
1.3202929e-10
-1.8597161e-07
9.1955331e-11
-1.2738308e-07
6.2827967e-11
-8.6504647e-08
4.2053676e-11
-5.8245194e-08
2.7369064e-11
-3.8853229e-08
1.7257869e-11
-2.5624692e-08
1.0403273e-11
-1.6643739e-08
5.9274565e-12
-1.0580543e-08
3.1043896e-12
-6.5178395e-09
1.4310867e-12
-3.824285e-09
5.2024582e-13
-2.0653975e-09
1.0432819e-13
-9.4119247e-10
-2.4450385e-10
1.6056839e-09
-3.4225308e-05
2.0340531e-09
-2.8498244e-05
1.0371316e-09
-2.3324081e-05
-6.8046945e-10
-1.9175701e-05
-2.7873978e-09
-1.5787008e-05
-4.7731382e-09
-1.293974e-05
-4.8478176e-09
-1.0343828e-05
-3.6623649e-09
-7.9737296e-06
-2.0733122e-09
-5.8949622e-06
-5.7596e-10
-4.126443e-06
4.594146e-10
-2.7281616e-06
8.1154986e-10
-1.7788455e-06
7.0507367e-10
-1.1813378e-06
5.0881682e-10
-7.991025e-07
3.6183089e-10
-5.515844e-07
2.591249e-10
-3.8559245e-07
1.8494963e-10
-2.6894633e-07
1.3049494e-10
-1.8591725e-07
9.0832557e-11
-1.2734339e-07
6.2027591e-11
-8.6475918e-08
4.1497313e-11
-5.8224658e-08
2.699582e-11
-3.8838783e-08
1.701825e-11
-2.5614719e-08
1.02563e-11
-1.6637012e-08
5.8439173e-12
-1.0576142e-08
3.0608406e-12
-6.5150752e-09
1.4105815e-12
-3.8226469e-09
5.1264179e-13
-2.0645116e-09
1.0290982e-13
-9.407912e-10
-2.4440094e-10
1.6057273e-09
-3.4226914e-05
2.0446317e-09
-2.8498683e-05
1.0594899e-09
-2.3323096e-05
-6.5542263e-10
-1.9173987e-05
-2.7709429e-09
-1.5784892e-05
-4.7699731e-09
-1.2937741e-05
-4.8479354e-09
-1.034375e-05
-3.6592572e-09
-7.9749183e-06
-2.065065e-09
-5.8965563e-06
-5.6776792e-10
-4.1279404e-06
4.6357511e-10
-2.7291929e-06
8.1127386e-10
-1.7791932e-06
7.0151188e-10
-1.181228e-06
5.050814e-10
-7.9890615e-07
3.5875453e-10
-5.5143802e-07
2.5671291e-10
-3.8549049e-07
1.8311414e-10
-2.6887269e-07
1.2913038e-10
-1.8586335e-07
8.9834642e-11
-1.2730408e-07
6.1318974e-11
-8.6447483e-08
4.100206e-11
-5.8204343e-08
2.6662221e-11
-3.8824502e-08
1.6799375e-11
-2.5604867e-08
1.0122093e-11
-1.6630372e-08
5.765837e-12
-1.0571799e-08
3.0198675e-12
-6.5123488e-09
1.3919597e-12
-3.8210315e-09
5.0593176e-13
-2.0636381e-09
1.0146702e-13
-9.403956e-10
-2.4429947e-10
1.6071924e-09
-3.4228521e-05
2.0576525e-09
-2.8499133e-05
1.0852836e-09
-2.3322124e-05
-6.2642228e-10
-1.9172275e-05
-2.7503931e-09
-1.5782768e-05
-4.7630353e-09
-1.2935729e-05
-4.8452293e-09
-1.0343668e-05
-3.6543337e-09
-7.9761092e-06
-2.0554422e-09
-5.8981552e-06
-5.5831789e-10
-4.1294375e-06
4.6838883e-10
-2.7302195e-06
8.1120714e-10
-1.7795361e-06
6.9818621e-10
-1.1811149e-06
5.0150475e-10
-7.9870952e-07
3.5577981e-10
-5.5129223e-07
2.5435611e-10
-3.8538913e-07
1.8128392e-10
-2.6879957e-07
1.2774386e-10
-1.8580988e-07
8.8799712e-11
-1.272651e-07
6.0570206e-11
-8.6419312e-08
4.0469363e-11
-5.8184232e-08
2.6297341e-11
-3.8810374e-08
1.6555413e-11
-2.5595126e-08
9.9675792e-12
-1.6623811e-08
5.6724368e-12
-1.0567511e-08
2.9671383e-12
-6.5096579e-09
1.3658114e-12
-3.8194379e-09
4.9599196e-13
-2.0627767e-09
1.0001804e-13
-9.4000555e-10
-2.4419946e-10
1.6100415e-09
-3.4230131e-05
2.0729981e-09
-2.8499596e-05
1.1142727e-09
-2.3321165e-05
-5.9363103e-10
-1.9170567e-05
-2.7260075e-09
-1.5780636e-05
-4.7526248e-09
-1.2933702e-05
-4.8400308e-09
-1.0343581e-05
-3.6477818e-09
-7.9773015e-06
-2.0443486e-09
-5.8997586e-06
-5.4745695e-10
-4.1309345e-06
4.7415724e-10
-2.7312411e-06
8.1188648e-10
-1.7798739e-06
6.9544823e-10
-1.1809985e-06
4.9849454e-10
-7.9851266e-07
3.533742e-10
-5.5114708e-07
2.5254933e-10
-3.8528841e-07
1.7996116e-10
-2.6872697e-07
1.2680086e-10
-1.8575682e-07
8.8138682e-11
-1.2722645e-07
6.0119542e-11
-8.6391387e-08
4.0172785e-11
-5.8164304e-08
2.6107997e-11
-3.8796378e-08
1.6443096e-11
-2.5585481e-08
9.905122e-12
-1.6617317e-08
5.6420291e-12
-1.0563268e-08
2.9574026e-12
-6.5069962e-09
1.3638964e-12
-3.8178621e-09
4.9595044e-13
-2.0619253e-09
9.8861613e-14
-9.3962005e-10
-2.441006e-10
1.6142111e-09
-3.4231746e-05
2.0905541e-09
-2.8500073e-05
1.1462765e-09
-2.3320221e-05
-5.5713865e-10
-1.9168864e-05
-2.6979487e-09
-1.5778495e-05
-4.7387395e-09
-1.2931661e-05
-4.8322241e-09
-1.0343487e-05
-3.6392531e-09
-7.9784945e-06
-2.0320279e-09
-5.9013658e-06
-5.3583227e-10
-4.1324307e-06
4.8028879e-10
-2.7322572e-06
8.1265633e-10
-1.7802063e-06
6.9263656e-10
-1.1808784e-06
4.9539937e-10
-7.9831548e-07
3.5087302e-10
-5.5100252e-07
2.5064488e-10
-3.8518825e-07
1.7853072e-10
-2.6865483e-07
1.2574171e-10
-1.8570411e-07
8.7358326e-11
-1.2718806e-07
5.9557687e-11
-8.6363653e-08
3.9769809e-11
-5.8144517e-08
2.5830357e-11
-3.8782486e-08
1.6251169e-11
-2.557591e-08
9.7789893e-12
-1.6610875e-08
5.5610674e-12
-1.055906e-08
2.9061289e-12
-6.5043572e-09
1.3369104e-12
-3.8163e-09
4.8535631e-13
-2.0610813e-09
9.7963853e-14
-9.3923799e-10
-2.4400263e-10
1.6195707e-09
-3.4233365e-05
2.1102688e-09
-2.8500563e-05
1.1811878e-09
-2.3319291e-05
-5.1714457e-10
-1.9167165e-05
-2.666439e-09
-1.5776346e-05
-4.7214807e-09
-1.2929606e-05
-4.821849e-09
-1.0343387e-05
-3.6286895e-09
-7.9796877e-06
-2.0182931e-09
-5.9029761e-06
-5.2327694e-10
-4.1339258e-06
4.8689128e-10
-2.7332673e-06
8.1366535e-10
-1.7805331e-06
6.9022754e-10
-1.1807549e-06
4.9273524e-10
-7.9811806e-07
3.4881618e-10
-5.5085856e-07
2.4916571e-10
-3.8508868e-07
1.774965e-10
-2.6858314e-07
1.2502244e-10
-1.8565172e-07
8.6862307e-11
-1.2714989e-07
5.9227343e-11
-8.633609e-08
3.9554519e-11
-5.8124854e-08
2.569572e-11
-3.8768681e-08
1.6171949e-11
-2.55664e-08
9.7378267e-12
-1.6604474e-08
5.5435833e-12
-1.0554881e-08
2.9041024e-12
-6.5017363e-09
1.3385503e-12
-3.8147487e-09
4.8655302e-13
-2.060243e-09
9.7345157e-14
-9.3885846e-10
-2.4390529e-10
1.6260533e-09
-3.4234991e-05
2.1320206e-09
-2.8501069e-05
1.2190097e-09
-2.3318378e-05
-4.7386956e-10
-1.9165472e-05
-2.631634e-09
-1.5774188e-05
-4.7009927e-09
-1.2927537e-05
-4.8092238e-09
-1.0343279e-05
-3.6164121e-09
-7.9808805e-06
-2.0033855e-09
-5.9045891e-06
-5.0987751e-10
-4.1354193e-06
4.9424203e-10
-2.7342714e-06
8.1501835e-10
-1.780854e-06
6.8816205e-10
-1.180628e-06
4.9032661e-10
-7.9792027e-07
3.4691518e-10
-5.5071511e-07
2.4776739e-10
-3.8498959e-07
1.7647513e-10
-2.6851182e-07
1.2428373e-10
-1.8559958e-07
8.6323163e-11
-1.2711192e-07
5.8843866e-11
-8.6308663e-08
3.92793e-11
-5.810529e-08
2.5507824e-11
-3.8754946e-08
1.6039169e-11
-2.5556938e-08
9.6498445e-12
-1.6598107e-08
5.4846012e-12
-1.0550723e-08
2.8662317e-12
-6.4991297e-09
1.3178594e-12
-3.8132061e-09
4.7838892e-13
-2.0594096e-09
9.6795881e-14
-9.3848109e-10
-2.4380849e-10
1.6336822e-09
-3.4236625e-05
2.1556185e-09
-2.8501591e-05
1.2595352e-09
-2.3317482e-05
-4.2741501e-10
-1.9163785e-05
-2.5934874e-09
-1.5772022e-05
-4.6773163e-09
-1.2925453e-05
-4.7943755e-09
-1.0343162e-05
-3.6023241e-09
-7.9820726e-06
-1.9873201e-09
-5.9062041e-06
-4.9556593e-10
-4.1369111e-06
5.023248e-10
-2.7352692e-06
8.1694515e-10
-1.7811687e-06
6.8664977e-10
-1.1804977e-06
4.8851256e-10
-7.9772222e-07
3.4565629e-10
-5.5057225e-07
2.4702389e-10
-3.8489107e-07
1.7610306e-10
-2.6844092e-07
1.2413616e-10
-1.8554774e-07
8.6311473e-11
-1.2707413e-07
5.8895769e-11
-8.6281359e-08
3.9370666e-11
-5.8085804e-08
2.5600501e-11
-3.8741261e-08
1.613662e-11
-2.5547508e-08
9.7311691e-12
-1.6591759e-08
5.5528639e-12
-1.0546577e-08
2.9211926e-12
-6.4965293e-09
1.3515072e-12
-3.8116669e-09
4.9248821e-13
-2.0585779e-09
9.6634229e-14
-9.3810447e-10
-2.4371186e-10
1.6424357e-09
-3.4238267e-05
2.1808493e-09
-2.850213e-05
1.302539e-09
-2.3316604e-05
-3.7779515e-10
-1.9162105e-05
-2.5520156e-09
-1.5769848e-05
-4.6505473e-09
-1.2923354e-05
-4.7771432e-09
-1.0343035e-05
-3.5867503e-09
-7.983263e-06
-1.9700806e-09
-5.9078208e-06
-4.8057097e-10
-4.1384007e-06
5.1041389e-10
-2.7362602e-06
8.1873689e-10
-1.781477e-06
6.8486411e-10
-1.1803638e-06
4.8640896e-10
-7.9752384e-07
3.4407268e-10
-5.504299e-07
2.4594696e-10
-3.8479302e-07
1.7538377e-10
-2.6837036e-07
1.2366622e-10
-1.8549611e-07
8.598556e-11
-1.2703646e-07
5.8667839e-11
-8.6254118e-08
3.9194885e-11
-5.8066351e-08
2.5471795e-11
-3.8727594e-08
1.6029144e-11
-2.5538086e-08
9.6472467e-12
-1.6585414e-08
5.485522e-12
-1.0542431e-08
2.8646891e-12
-6.4939286e-09
1.318069e-12
-3.8101271e-09
4.7872153e-13
-2.0577457e-09
9.6745093e-14