/*--------------------------------*- C++ -*----------------------------------*\
| =========                 |                                                 |
| \\      /  F ield         | OpenFOAM: The Open Source CFD Toolbox           |
|  \\    /   O peration     | Version:  v2012                                 |
|   \\  /    A nd           | Website:  www.openfoam.com                      |
|    \\/     M anipulation  |                                                 |
\*---------------------------------------------------------------------------*/
FoamFile
{
    version     2.0;
    format      ascii;
    class       volScalarField;
    location    "150";
    object      rho;
}
// * * * * * * * * * * * * * * * * * * * * * * * * * * * * * * * * * * * * * //

dimensions      [1 -3 0 0 0 0 0];


internalField   nonuniform List<scalar> 
24000
(
22.259712
21.915104
21.464828
21.18981
20.932937
20.534357
19.508026
17.822282
15.587415
12.853655
9.9787786
7.6713899
6.0581704
4.9193696
4.1472735
3.6292562
3.2589113
2.9823734
2.7727024
2.6124193
2.4891045
2.393137
2.3173589
2.256558
2.2071718
2.166531
2.1325324
2.1037092
2.0789474
2.0574019
22.262682
21.917175
21.46558
21.189797
20.932259
20.533164
19.508598
17.823075
15.586895
12.853036
9.9825286
7.681675
6.069889
4.9309451
4.157827
3.6390012
3.2679219
2.9905621
2.7800014
2.6188304
2.4947225
2.3980821
2.3217789
2.2605952
2.2109423
2.1701049
2.1359547
2.1070094
2.0821459
2.0605136
22.265728
21.91946
21.466406
21.189103
20.930611
20.532234
19.510558
17.82624
15.591301
12.860382
9.9920114
7.6910425
6.0781664
4.937853
4.1640825
3.6448686
3.273451
2.9957049
2.7847044
2.6230926
2.4985512
2.4014996
2.324834
2.2633603
2.2134831
2.1724809
2.1382098
2.1091735
2.0842379
2.0625459
22.268814
21.92173
21.46731
21.188764
20.92951
20.531528
19.512298
17.829995
15.596422
12.86649
9.997187
7.6942278
6.0794771
4.9381464
4.1641117
3.6447175
3.273045
2.995014
2.7837539
2.6219489
2.4973149
2.400265
2.3236591
2.2622671
2.2124626
2.1715237
2.1373034
2.1083069
2.0834028
2.0617362
22.271905
21.924017
21.468249
21.188533
20.928547
20.530867
19.51417
17.834082
15.601784
12.872547
10.0019
7.6967153
6.0800797
4.9378223
4.1638464
3.6445917
3.2729825
2.9949904
2.7837644
2.6219931
2.4973842
2.4003453
2.3237406
2.2623458
2.2125372
2.1715942
2.1373708
2.1083721
2.0834665
2.0617988
22.275001
21.926318
21.469214
21.188417
20.927703
20.530154
19.516127
17.838325
15.607256
12.878712
10.006581
7.6989967
6.0803884
4.9371832
4.1632903
3.6442039
3.2726739
2.9947252
2.7835296
2.6217842
2.4971965
2.4001759
2.3235882
2.2622081
2.2124109
2.1714765
2.1372595
2.1082659
2.0833645
2.0617005
22.278102
21.928632
21.4702
21.188376
20.926935
20.529409
19.518136
17.842705
15.612877
12.885038
10.011455
7.701385
6.0807418
4.9365695
4.1627559
3.6438371
3.2723894
2.9944911
2.783335
2.621624
2.4970629
2.4000623
2.3234902
2.2621224
2.2123343
2.171406
2.1371935
2.1082033
2.0833047
2.0616431
22.281207
21.930958
21.471204
21.188389
20.926216
20.528647
19.520198
17.847218
15.618663
12.89151
10.01658
7.7039467
6.0812026
4.9360399
4.1622825
3.6435135
3.272137
2.994282
2.7831613
2.6214813
2.4969442
2.3999614
2.3234031
2.2620465
2.2122666
2.1713442
2.1371359
2.1081488
2.0832526
2.0615931
22.284316
21.933296
21.472222
21.188439
20.925532
20.527877
19.522314
17.851858
15.624613
12.8981
10.021957
7.706692
6.0817881
4.9356158
4.1618901
3.6432509
3.271933
2.9941135
2.783023
2.6213703
2.4968544
2.3998868
2.3233401
2.2619927
2.2122197
2.1713022
2.1370973
2.1081126
2.0832184
2.0615603
22.287428
21.935644
21.473252
21.188515
20.924874
20.527102
19.524482
17.856616
15.630714
12.904775
10.027562
7.709605
6.08249
4.9352937
4.1615766
3.6430476
3.2717761
2.9939839
2.782918
2.6212881
2.4967901
2.3998351
2.3232976
2.2619575
2.2121902
2.1712767
2.1370745
2.1080918
2.0831989
2.0615419
22.290543
21.938002
21.474295
21.18861
20.924235
20.526328
19.526697
17.861479
15.63695
12.911549
10.033334
7.7126676
6.0832921
4.9350589
4.1613311
3.642896
3.2716602
2.9938881
2.7828416
2.6212303
2.4967473
2.3998026
2.3232724
2.2619381
2.2121753
2.1712649
2.1370648
2.1080835
2.0831915
2.0615351
22.293661
21.94037
21.475349
21.18872
20.923609
20.525555
19.528958
17.866436
15.643303
12.918428
10.039232
7.7158514
6.0841678
4.9348923
4.1611398
3.6427854
3.271577
2.9938187
2.782787
2.6211905
2.4967194
2.3997833
2.3232592
2.2619295
2.21217
2.171262
2.1370635
2.1080832
2.0831918
2.0615357
22.296783
21.942747
21.476412
21.188842
20.922992
20.524781
19.53126
17.871477
15.649753
12.9254
10.045219
7.7191247
6.0850949
4.934778
4.1609907
3.642707
3.271519
2.9937696
2.7827487
2.6211633
2.4967016
2.3997727
2.3232535
2.2619277
2.2121708
2.1712645
2.1370671
2.1080875
2.0831965
2.0615407
22.299907
21.945133
21.477486
21.188972
20.92238
20.524004
19.533595
17.876588
15.65629
12.93245
10.051271
7.7224621
6.0860566
4.9347031
4.1608744
3.6426531
3.27148
2.9937349
2.7827212
2.6211438
2.4966897
2.3997667
2.3232521
2.2619293
2.2121744
2.1712696
2.1370731
2.1080941
2.0832034
2.0615477
22.303034
21.947528
21.478569
21.189111
20.921771
20.523221
19.535958
17.88176
15.662905
12.939562
10.05737
7.7258438
6.0870387
4.9346563
4.1607822
3.642617
3.2714542
2.99371
2.7827006
2.6211296
2.4966816
2.3997642
2.3232537
2.2619337
2.2121806
2.171277
2.1370814
2.1081028
2.0832123
2.0615567
22.306163
21.949932
21.479662
21.189256
20.921162
20.522428
19.538344
17.886986
15.669587
12.946721
10.0635
7.7292566
6.0880308
4.9346301
4.1607085
3.6425949
3.2714394
2.9936934
2.7826867
2.6211209
2.4966786
2.3997659
2.3232589
2.2619416
2.2121902
2.1712877
2.1370928
2.1081145
2.0832242
2.0615685
22.309296
21.952344
21.480764
21.189407
20.920549
20.521625
19.540751
17.892258
15.676327
12.953919
10.069654
7.7326895
6.0890269
4.9346193
4.1606505
3.6425854
3.271435
2.9936857
2.7826804
2.6211188
2.496681
2.3997723
2.3232684
2.2619533
2.2122034
2.1713018
2.1371075
2.1081294
2.0832391
2.0615833
22.312431
21.954765
21.481876
21.189561
20.919932
20.520812
19.543175
17.897572
15.683122
12.961152
10.075823
7.7361356
6.0900219
4.9346202
4.1606056
3.6425867
3.2714398
2.9936856
2.7826802
2.6211217
2.4966877
2.3997824
2.3232811
2.2619678
2.2122191
2.1713183
2.1371244
2.1081466
2.0832562
2.0616002
22.315569
21.957195
21.482998
21.18972
20.919308
20.519986
19.545615
17.902923
15.689963
12.968413
10.082003
7.7395869
6.0910107
4.9346286
4.1605704
3.6425962
3.2714515
2.9936912
2.7826845
2.6211282
2.4966975
2.3997951
2.3232962
2.2619846
2.212237
2.1713368
2.1371433
2.1081655
2.0832751
2.0616189
22.318709
21.959634
21.484129
21.18988
20.918676
20.519147
19.548068
17.908306
15.696846
12.975699
10.088188
7.7430369
6.0919899
4.9346413
4.1605426
3.6426121
3.271469
2.9937016
2.7826929
2.6211379
2.4967099
2.3998102
2.3233134
2.2620033
2.2122565
2.1713569
2.1371637
2.1081859
2.0832953
2.0616388
22.321852
21.962082
21.48527
21.190044
20.918036
20.518293
19.550533
17.913721
15.703769
12.98301
10.094373
7.7464812
6.092956
4.9346554
4.16052
3.6426329
3.2714907
2.9937157
2.782704
2.6211498
2.4967241
2.3998268
2.3233318
2.2620231
2.2122772
2.171378
2.137185
2.1082071
2.0833163
2.0616595
22.324997
21.964538
21.486422
21.19021
20.917386
20.517424
19.553009
17.919166
15.710728
12.99034
10.100557
7.7499146
6.093907
4.9346687
4.160501
3.6426573
3.2715159
2.9937327
2.7827174
2.6211635
2.4967397
2.3998447
2.3233514
2.2620438
2.2122985
2.1713997
2.1372069
2.1082291
2.0833381
2.061681
22.328146
21.967004
21.487584
21.190378
20.916726
20.51654
19.555494
17.924638
15.717721
12.997686
10.106738
7.7533354
6.094841
4.9346799
4.1604847
3.6426846
3.2715441
2.9937523
2.782733
2.6211789
2.4967568
2.3998637
2.3233721
2.2620658
2.2123212
2.1714227
2.13723
2.108252
2.0833608
2.0617034
22.331296
21.969478
21.488758
21.190548
20.916055
20.515639
19.557986
17.930136
15.724748
13.005049
10.112912
7.756741
6.0957562
4.9346881
4.1604705
3.6427146
3.2715751
2.9937745
2.7827508
2.6211962
2.4967755
2.3998842
2.3233942
2.262089
2.212345
2.1714469
2.1372542
2.1082761
2.0833846
2.0617268
22.33445
21.971962
21.489942
21.190722
20.915373
20.514721
19.560484
17.93566
15.731807
13.012426
10.119076
7.7601285
6.0966526
4.9346927
4.160458
3.642747
3.2716087
2.9937992
2.7827708
2.6212153
2.4967956
2.399906
2.3234175
2.2621133
2.2123699
2.171472
2.1372793
2.108301
2.0834092
2.061751
22.337606
21.974455
21.491138
21.190898
20.91468
20.513785
19.562988
17.941207
15.738896
13.019815
10.12523
7.7634974
6.0975298
4.9346931
4.1604469
3.6427816
3.2716448
2.9938263
2.7827928
2.6212362
2.4968173
2.3999292
2.323442
2.2621387
2.2123955
2.1714977
2.1373051
2.1083267
2.0834346
2.0617761
22.340765
21.976958
21.492346
21.191077
20.913976
20.512832
19.565497
17.946778
15.746015
13.027215
10.131373
7.7668466
6.0983857
4.9346888
4.1604368
3.6428182
3.2716831
2.9938554
2.7828167
2.6212586
2.4968402
2.3999534
2.3234676
2.2621652
2.2124225
2.1715248
2.1373321
2.1083535
2.083461
2.061802
22.343926
21.97947
21.493566
21.19126
20.91326
20.511863
19.568007
17.952369
15.753163
13.034627
10.137504
7.7701738
6.099222
4.9346798
4.1604278
3.6428568
3.2717237
2.9938868
2.7828426
2.6212829
2.4968648
2.3999791
2.3234946
2.262193
2.2124507
2.1715531
2.1373603
2.1083813
2.0834884
2.061829
22.347091
21.981991
21.494799
21.191446
20.912534
20.510875
19.570518
17.957982
15.760341
13.04205
10.14362
7.773478
6.1000379
4.9346658
4.1604197
3.6428975
3.2717666
2.9939203
2.7828704
2.6213089
2.4968909
2.4000061
2.3235227
2.2622221
2.21248
2.1715824
2.1373894
2.1084101
2.0835168
2.0618569
22.350257
21.984521
21.496044
21.191636
20.911797
20.50987
19.573029
17.963614
15.767549
13.049485
10.149722
7.7767584
6.1008323
4.9346466
4.1604125
3.64294
3.2718115
2.9939561
2.7829004
2.6213368
2.4969187
2.4000348
2.3235524
2.2622523
2.2125105
2.1716128
2.1374196
2.10844
2.0835463
2.0618859
22.353427
21.987062
21.497302
21.19183
20.91105
20.508848
19.575539
17.969265
15.774783
13.056931
10.155808
7.7800138
6.101605
4.9346224
4.1604065
3.6429847
3.2718587
2.9939935
2.7829319
2.6213661
2.4969478
2.4000644
2.3235828
2.2622835
2.212542
2.1716442
2.1374508
2.1084708
2.0835765
2.0619156
22.356599
21.989612
21.498574
21.19203
20.910292
20.507809
19.578047
17.974936
15.782045
13.064386
10.161875
7.783243
6.1023573
4.9345929
4.1604011
3.6430308
3.2719074
2.9940325
2.7829647
2.6213966
2.4969779
2.4000949
2.3236142
2.2623155
2.2125742
2.1716764
2.1374827
2.1085023
2.0836075
2.061946
22.359774
21.992173
21.49986
21.192233
20.909524
20.506753
19.58055
17.980626
15.789335
13.071852
10.167927
7.7864442
6.1030886
4.9345579
4.160396
3.6430784
3.2719577
2.9940727
2.7829987
2.6214282
2.497009
2.4001263
2.3236461
2.2623481
2.2126069
2.171709
2.137515
2.1085341
2.0836388
2.0619767
22.362953
21.994743
21.50116
21.192442
20.908745
20.505681
19.583049
17.986333
15.796651
13.079327
10.173959
7.7896177
6.1037985
4.9345175
4.1603916
3.6431275
3.2720096
2.9941146
2.7830341
2.6214611
2.4970412
2.4001588
2.3236791
2.2623812
2.2126399
2.1717419
2.1375477
2.1085665
2.0836707
2.062008
22.366134
21.997323
21.502475
21.192656
20.907957
20.504592
19.585541
17.992056
15.803992
13.086809
10.179972
7.7927624
6.1044865
4.9344717
4.1603874
3.643178
3.2720629
2.9941577
2.7830704
2.6214946
2.4970739
2.4001915
2.3237123
2.2624146
2.2126735
2.1717753
2.1375808
2.108599
2.0837027
2.0620395
22.369318
21.999912
21.503805
21.192877
20.907159
20.503485
19.588026
17.997793
15.811359
13.094298
10.185964
7.7958769
6.1051519
4.9344203
4.1603832
3.6432295
3.2721173
2.994202
2.7831077
2.6215288
2.4971071
2.4002248
2.3237459
2.2624485
2.2127072
2.1718088
2.137614
2.1086318
2.0837349
2.0620711
22.372505
22.002512
21.50515
21.193105
20.906352
20.502361
19.590504
18.003543
15.818748
13.101796
10.191934
7.7989612
6.1057957
4.9343633
4.1603788
3.6432819
3.2721728
2.9942469
2.7831455
2.6215632
2.4971404
2.400258
2.3237793
2.2624823
2.212741
2.1718424
2.1376472
2.1086644
2.0837669
2.0621025
22.375694
22.005122
21.506512
21.19334
20.905535
20.501219
19.592972
18.009305
15.826161
13.1093
10.197883
7.802013
6.1064179
4.9343006
4.160374
3.6433353
3.2722293
2.9942927
2.7831839
2.621598
2.497174
2.4002916
2.3238132
2.262516
2.2127745
2.1718755
2.1376801
2.108697
2.083799
2.062134
22.378887
22.007741
21.50789
21.193584
20.90471
20.50006
19.595431
18.015076
15.833598
13.11681
10.203808
7.8050305
6.1070185
4.9342322
4.1603689
3.6433894
3.2722867
2.9943392
2.7832226
2.621633
2.4972077
2.4003251
2.3238469
2.26255
2.2128084
2.1719092
2.1377134
2.1087297
2.0838312
2.0621655
22.382083
22.010371
21.509284
21.193837
20.903876
20.498883
19.597878
18.020855
15.841054
13.124323
10.209707
7.8080153
6.1075973
4.9341585
4.1603636
3.6434444
3.2723451
2.9943866
2.7832622
2.6216688
2.497242
2.4003591
2.323881
2.2625842
2.2128425
2.1719431
2.1377468
2.1087627
2.0838636
2.0621973
22.385282
22.013011
21.510696
21.194099
20.903034
20.497689
19.600313
18.02664
15.848531
13.131842
10.215582
7.8109657
6.1081541
4.9340794
4.1603582
3.6435004
3.2724046
2.9944348
2.7833022
2.6217048
2.4972764
2.4003931
2.323915
2.2626184
2.2128765
2.1719768
2.1377802
2.1087955
2.0838957
2.0622288
22.388483
22.015661
21.512124
21.194373
20.902186
20.496476
19.602734
18.03243
15.856027
13.139364
10.221433
7.8138808
6.1086888
4.9339953
4.160353
3.6435577
3.2724655
2.9944842
2.7833431
2.6217415
2.4973115
2.4004278
2.3239497
2.2626527
2.2129104
2.1720103
2.1378134
2.1088284
2.0839281
2.0622606
22.391688
22.018321
21.513571
21.194659
20.90133
20.495245
19.60514
18.038224
15.86354
13.146888
10.22726
7.8167611
6.1092013
4.9339061
4.1603478
3.6436159
3.2725274
2.9945342
2.7833845
2.6217785
2.4973467
2.4004624
2.3239844
2.2626873
2.2129449
2.1720445
2.1378471
2.1088615
2.0839606
2.0622925
22.394896
22.020992
21.515036
21.194957
20.900468
20.493996
19.607529
18.04402
15.871071
13.154413
10.233059
7.8196046
6.1096932
4.9338121
4.1603429
3.6436754
3.2725907
2.9945855
2.783427
2.6218163
2.4973825
2.4004977
2.3240195
2.2627224
2.2129796
2.1720788
2.137881
2.1088949
2.0839934
2.0623247
22.398107
22.023672
21.516519
21.195269
20.899602
20.492729
19.609901
18.049816
15.878618
13.161939
10.238831
7.8224111
6.110165
4.9337135
4.1603385
3.6437361
3.2726551
2.9946376
2.7834699
2.6218543
2.4974185
2.4005329
2.3240546
2.2627575
2.2130144
2.1721132
2.1379148
2.1089281
2.084026
2.0623566
22.40132
22.026363
21.518022
21.195595
20.898731
20.491445
19.612253
18.055609
15.886179
13.169465
10.244573
7.8251818
6.1106167
4.9336106
4.1603347
3.6437985
3.2727212
2.994691
2.783514
2.6218934
2.4974555
2.4005689
2.3240904
2.2627928
2.2130492
2.1721475
2.1379488
2.1089616
2.084059
2.062389
22.404537
22.029064
21.519543
21.195937
20.897856
20.490143
19.614584
18.061399
15.893753
13.17699
10.250289
7.827915
6.1110485
4.9335035
4.1603315
3.6438623
3.2727886
2.9947455
2.7835588
2.6219328
2.4974925
2.4006049
2.324126
2.2628284
2.2130845
2.1721824
2.1379831
2.1089953
2.084092
2.0624214
22.407757
22.031776
21.521084
21.196295
20.896979
20.488826
19.616893
18.067181
15.901339
13.184513
10.255978
7.8306091
6.1114603
4.9333922
4.1603291
3.6439278
3.2728576
2.9948013
2.7836046
2.6219732
2.4975303
2.4006416
2.3241622
2.2628644
2.2131201
2.1722175
2.1380177
2.1090293
2.0841253
2.0624541
22.41098
22.034497
21.522644
21.19667
20.8961
20.487495
19.619178
18.072955
15.908937
13.192034
10.261638
7.8332653
6.1118525
4.9332774
4.1603277
3.643995
3.2729282
2.9948582
2.7836512
2.6220141
2.4975683
2.4006784
2.3241985
2.2629004
2.2131556
2.1722526
2.1380522
2.1090631
2.0841585
2.0624866
22.414207
22.037229
21.524225
21.197062
20.895221
20.48615
19.621438
18.078718
15.916544
13.19955
10.267269
7.8358844
6.1122256
4.9331591
4.1603279
3.6440643
3.2730004
2.9949168
2.7836991
2.622056
2.4976073
2.4007161
2.3242356
2.2629367
2.2131912
2.1722876
2.1380868
2.1090973
2.0841921
2.0625196
22.417437
22.039971
21.525826
21.197473
20.894341
20.484793
19.623671
18.084469
15.92416
13.207061
10.272871
7.8384654
6.1125794
4.9330374
4.1603292
3.6441355
3.2730745
2.9949765
2.7837478
2.6220985
2.4976467
2.400754
2.3242727
2.2629733
2.2132274
2.1723233
2.1381218
2.1091317
2.0842258
2.0625526
22.42067
22.042723
21.527447
21.197903
20.893464
20.483423
19.625876
18.090207
15.931781
13.214567
10.278446
7.8410077
6.112914
4.9329126
4.160332
3.6442089
3.2731506
2.9950379
2.7837978
2.6221419
2.4976868
2.4007925
2.3243104
2.2630104
2.2132639
2.1723591
2.1381571
2.1091664
2.0842598
2.062586
22.423906
22.045485
21.529089
21.198354
20.892589
20.482041
19.628052
18.095928
15.939408
13.222066
10.283991
7.8435112
6.1132297
4.9327849
4.1603363
3.6442845
3.2732285
2.9951005
2.7838486
2.622186
2.4977273
2.4008312
2.3243482
2.2630478
2.2133006
2.1723952
2.1381925
2.1092009
2.0842937
2.0626191
22.427145
22.048257
21.530752
21.198827
20.891718
20.480648
19.630197
18.101634
15.947041
13.229556
10.289505
7.8459764
6.1135278
4.932655
4.1603426
3.6443626
3.2733087
2.9951649
2.7839009
2.6222312
2.4977688
2.4008709
2.3243869
2.2630854
2.2133373
2.1724312
2.1382279
2.1092359
2.084328
2.0626528
22.430387
22.05104
21.532436
21.199324
20.890852
20.479245
19.632309
18.107321
15.954676
13.237035
10.294989
7.8484028
6.1138093
4.9325227
4.1603508
3.644443
3.2733909
2.9952308
2.7839541
2.6222771
2.4978108
2.4009108
2.3244256
2.2631235
2.2133747
2.1724679
2.1382639
2.1092711
2.0843625
2.0626866
22.433632
22.053832
21.534142
21.199844
20.889993
20.477833
19.634388
18.112986
15.962311
13.244505
10.300442
7.8507902
6.1140749
4.9323884
4.1603613
3.6445261
3.2734754
2.9952985
2.7840088
2.6223242
2.4978537
2.4009515
2.324465
2.2631622
2.2134125
2.172505
2.1383003
2.1093068
2.0843975
2.0627209
22.43688
22.056635
21.535869
21.20039
20.889142
20.476412
19.636431
18.118627
15.969946
13.251963
10.305865
7.8531394
6.1143245
4.9322523
4.160374
3.6446117
3.2735619
2.9953677
2.7840645
2.622372
2.4978971
2.4009925
2.3245047
2.263201
2.2134505
2.1725422
2.1383367
2.1093424
2.0844323
2.062755
22.440132
22.059447
21.537618
21.200961
20.888301
20.474986
19.638436
18.124244
15.977581
13.259407
10.311256
7.8554499
6.1145589
4.9321149
4.1603892
3.6447002
3.2736511
2.995439
2.7841219
2.622421
2.4979416
2.4010346
2.3245453
2.2632402
2.2134885
2.1725793
2.1383732
2.1093783
2.0844676
2.0627896
22.443386
22.06227
21.539388
21.201557
20.887471
20.473559
19.640402
18.129833
15.985212
13.266836
10.316616
7.8577225
6.1147783
4.9319763
4.160407
3.6447914
3.2737425
2.9955119
2.7841805
2.622471
2.4979867
2.401077
2.3245861
2.26328
2.2135274
2.1726173
2.1384103
2.1094146
2.0845032
2.0628245
22.446644
22.065103
21.54118
21.202179
20.886653
20.472133
19.642327
18.135393
15.99284
13.274248
10.321945
7.859958
6.1149833
4.9318367
4.1604275
3.6448857
3.2738367
2.9955869
2.7842408
2.6225223
2.4980331
2.4011203
2.3246278
2.2633205
2.2135668
2.1726557
2.138448
2.1094515
2.0845393
2.0628598
22.449905
22.067946
21.542995
21.202829
20.885848
20.470707
19.644209
18.140922
16.000461
13.281645
10.327244
7.8621554
6.1151743
4.9316961
4.1604508
3.6449828
3.2739332
2.9956638
2.7843024
2.6225746
2.49808
2.4011642
2.3246698
2.2633614
2.2136066
2.1726946
2.1384858
2.1094884
2.0845753
2.0628952
22.45317
22.070799
21.544831
21.203507
20.885059
20.469285
19.646046
18.14642
16.008076
13.289023
10.332512
7.8643157
6.115352
4.9315554
4.1604772
3.6450834
3.2740327
2.9957431
2.7843659
2.6226283
2.4981281
2.4012091
2.3247128
2.2634028
2.2136467
2.1727336
2.138524
2.1095259
2.0846121
2.0629312
22.456437
22.073662
21.546689
21.204213
20.884288
20.467865
19.647837
18.151885
16.015683
13.29638
10.337748
7.8664396
6.1155167
4.9314147
4.1605067
3.6451871
3.2741348
2.9958245
2.7844308
2.6226832
2.4981771
2.4012546
2.3247562
2.2634449
2.2136875
2.1727734
2.1385628
2.1095637
2.0846491
2.0629674
22.459707
22.076535
21.54857
21.20495
20.883535
20.466451
19.64958
18.157318
16.023282
13.303716
10.342953
7.8685273
6.1156689
4.9312741
4.1605395
3.6452941
3.2742399
2.9959082
2.7844977
2.6227396
2.4982273
2.4013012
2.3248005
2.2634878
2.2137291
2.1728139
2.1386023
2.1096023
2.0846868
2.0630043
22.462981
22.079418
21.550473
21.205717
20.882802
20.465043
19.651274
18.162715
16.030868
13.311028
10.348127
7.8705793
6.1158088
4.9311338
4.1605757
3.6454045
3.2743476
2.995994
2.7845662
2.6227973
2.4982784
2.4013484
2.3248453
2.263531
2.213771
2.1728546
2.138642
2.109641
2.0847245
2.0630412
22.466258
22.082311
21.552398
21.206515
20.882092
20.463643
19.652916
18.168075
16.038444
13.318317
10.353269
7.8725953
6.1159371
4.9309944
4.1606157
3.6455186
3.2744585
2.9960825
2.7846367
2.6228565
2.4983311
2.4013969
2.3248913
2.2635748
2.2138131
2.1728955
2.138682
2.1096802
2.084763
2.0630789
22.469539
22.085214
21.554346
21.207345
20.881405
20.462253
19.654505
18.173397
16.046006
13.325579
10.35838
7.8745766
6.116054
4.9308557
4.1606592
3.6456361
3.2745723
2.9961731
2.7847088
2.6229169
2.4983845
2.4014461
2.3249378
2.2636195
2.2138563
2.1729374
2.1387228
2.1097199
2.0848018
2.063117
22.472823
22.088126
21.556317
21.208207
20.880745
20.460875
19.656039
18.17868
16.053554
13.332816
10.363458
7.8765233
6.1161598
4.9307181
4.1607065
3.6457573
3.2746893
2.9962662
2.784783
2.6229791
2.4984394
2.4014965
2.3249854
2.263665
2.2139002
2.17298
2.1387642
2.1097604
2.0848414
2.0631557
22.476109
22.091048
21.55831
21.209101
20.880111
20.459512
19.657516
18.183923
16.061086
13.340024
10.368504
7.8784363
6.1162547
4.9305818
4.1607576
3.6458821
3.2748092
2.9963617
2.7848589
2.6230426
2.4984952
2.4015476
2.3250335
2.2637113
2.2139447
2.1730231
2.1388061
2.1098012
2.0848811
2.0631945
22.4794
22.093979
21.560325
21.210026
20.879506
20.458166
19.658936
18.189123
16.068601
13.347204
10.373518
7.8803157
6.116339
4.9304474
4.160813
3.6460109
3.2749324
2.9964598
2.784937
2.6231076
2.4985525
2.4016003
2.325083
2.2637581
2.2139895
2.1730665
2.1388484
2.1098426
2.0849216
2.0632343
22.482692
22.09692
21.562363
21.210984
20.878931
20.456838
19.660297
18.194281
16.076098
13.354354
10.378498
7.8821616
6.1164132
4.9303152
4.1608726
3.6461433
3.2750587
2.9965604
2.7850169
2.6231743
2.498611
2.4016536
2.325133
2.263806
2.2140356
2.1731111
2.1388916
2.1098846
2.0849627
2.0632744
22.485988
22.09987
21.564422
21.211973
20.878387
20.455531
19.661596
18.199397
16.083576
13.361474
10.383443
7.8839748
6.1164777
4.9301856
4.1609366
3.6462802
3.2751887
2.9966638
2.7850991
2.6232428
2.498671
2.4017083
2.3251843
2.2638548
2.2140825
2.1731565
2.1389357
2.1099276
2.0850046
2.0633154
22.489288
22.102829
21.566503
21.212996
20.877877
20.454245
19.662832
18.20447
16.091032
13.368562
10.388356
7.8857554
6.1165328
4.9300587
4.1610053
3.6464206
3.2753216
2.9967695
2.785183
2.6233126
2.4987318
2.4017636
2.325236
2.2639042
2.2141299
2.1732022
2.13898
2.1099706
2.0850465
2.0633564
22.492591
22.105798
21.568606
21.214051
20.877403
20.452982
19.664005
18.2095
16.098465
13.375617
10.393234
7.8875039
6.1165787
4.9299345
4.1610784
3.6465651
3.2754577
2.9968777
2.7852689
2.6233839
2.4987941
2.4018203
2.325289
2.263954
2.2141773
2.1732479
2.1390246
2.1100142
2.0850892
2.0633982
22.495897
22.108776
21.57073
21.215139
20.876964
20.451742
19.665112
18.214486
16.105874
13.382639
10.398077
7.88922
6.1166161
4.9298133
4.1611561
3.6467136
3.2755969
2.9969883
2.7853565
2.6234566
2.4988575
2.4018778
2.3253426
2.2640049
2.2142262
2.1732951
2.1390702
2.1100585
2.0851324
2.0634405
22.499206
22.111763
21.572876
21.21626
20.876565
20.450527
19.666153
18.219427
16.11326
13.389625
10.402881
7.8909036
6.116646
4.9296961
4.1612391
3.6468664
3.2757397
2.9971018
2.7854466
2.6235314
2.4989226
2.4019367
2.3253975
2.264057
2.214276
2.1733431
2.1391168
2.1101039
2.0851767
2.0634838
22.502518
22.114759
21.575043
21.217415
20.876205
20.449338
19.667128
18.224326
16.120618
13.396575
10.407649
7.8925556
6.1166689
4.9295829
4.1613271
3.6470236
3.2758858
2.9972178
2.7855386
2.6236076
2.4989888
2.4019966
2.3254532
2.26411
2.2143266
2.1733918
2.1391639
2.1101495
2.0852211
2.0635272
22.505834
22.117764
21.577231
21.218602
20.875887
20.448175
19.668034
18.22918
16.127948
13.403491
10.412378
7.8941764
6.1166849
4.9294739
4.1614207
3.6471851
3.2760353
2.9973366
2.7856329
2.6236857
2.4990567
2.4020579
2.3255102
2.2641636
2.2143776
2.1734408
2.1392115
2.110196
2.0852665
2.0635717
22.509152
22.120779
21.579441
21.219822
20.875612
20.44704
19.668873
18.233989
16.135249
13.41037
10.417067
7.8957653
6.1166942
4.9293691
4.1615197
3.6473509
3.2761881
2.9974577
2.7857288
2.623765
2.4991255
2.4021199
2.3255678
2.2642181
2.2144297
2.173491
2.1392599
2.110243
2.0853123
2.0636165
22.512473
22.123802
21.581671
21.221076
20.875381
20.445933
19.669643
18.238753
16.142521
13.417214
10.421714
7.8973231
6.1166975
4.9292692
4.1616241
3.6475211
3.2763443
2.9975814
2.7858268
2.623846
2.4991956
2.4021829
2.3256262
2.2642734
2.2144825
2.1735418
2.1393091
2.1102908
2.0853589
2.063662
22.515797
22.126834
21.583921
21.222363
20.875196
20.444852
19.670344
18.243472
16.14976
13.424019
10.426317
7.89885
6.1166949
4.9291741
4.161734
3.6476955
3.2765034
2.9977073
2.7859263
2.6239282
2.4992666
2.4022467
2.3256852
2.2643292
2.2145356
2.1735929
2.1393585
2.1103386
2.0854054
2.0637074
22.519125
22.129875
21.586193
21.223683
20.875058
20.4438
19.670978
18.248148
16.156965
13.430788
10.430878
7.9003464
6.116687
4.9290843
4.1618499
3.6478747
3.2766664
2.9978362
2.7860282
2.6240121
2.4993392
2.402312
2.3257456
2.2643856
2.214589
2.1736442
2.1394083
2.1103872
2.0854529
2.0637539
22.522456
22.132925
21.588484
21.225036
20.874969
20.442776
19.671545
18.252779
16.164136
13.437517
10.435395
7.9018122
6.1166741
4.929
4.1619717
3.6480586
3.2768327
2.9979675
2.7861318
2.6240975
2.4994128
2.402378
2.3258065
2.264443
2.2146438
2.1736968
2.1394591
2.1104364
2.0855009
2.0638008
22.525789
22.135983
21.590796
21.22642
20.874928
20.441782
19.672046
18.257367
16.17127
13.444206
10.439869
7.903248
6.1166569
4.9289216
4.1620999
3.6482475
3.2770029
2.9981017
2.7862378
2.6241847
2.499488
2.4024453
2.3258687
2.2645014
2.2146993
2.1737501
2.1395106
2.1104866
2.0855497
2.0638485
22.529126
22.13905
21.593127
21.227835
20.874936
20.440817
19.672485
18.261912
16.178366
13.450855
10.444299
7.9046545
6.1166356
4.9288492
4.1622343
3.6484412
3.2771766
2.9982385
2.7863456
2.6242733
2.4995641
2.4025134
2.3259315
2.2645606
2.2147555
2.173804
2.1395626
2.1105368
2.0855986
2.0638963
22.532466
22.142126
21.595478
21.22928
20.874991
20.439884
19.672866
18.266414
16.185422
13.457463
10.448684
7.9060315
6.1166108
4.9287833
4.1623753
3.6486402
3.2773543
2.9983782
2.7864557
2.6243637
2.499642
2.402583
2.3259956
2.2646203
2.214812
2.1738581
2.139615
2.1105878
2.0856484
2.0639451
22.53581
22.14521
21.597849
21.230754
20.875091
20.43898
19.673196
18.270875
16.192437
13.464027
10.453024
7.9073792
6.1165825
4.9287238
4.1625227
3.6488442
3.2775356
2.9985205
2.7865676
2.6244555
2.4997207
2.4026533
2.3260602
2.2646811
2.2148697
2.1739134
2.1396682
2.1106394
2.0856986
2.0639941
22.539156
22.148302
21.60024
21.232257
20.875235
20.438104
19.673483
18.275294
16.199409
13.470549
10.457318
7.9086966
6.1165509
4.9286706
4.1626767
3.6490533
3.2777208
2.9986657
2.7866819
2.6245492
2.4998011
2.4027249
2.3261259
2.2647427
2.2149282
2.1739694
2.1397223
2.1106918
2.0857496
2.064044
22.542505
22.151403
21.60265
21.233791
20.87542
20.437254
19.673733
18.279672
16.206337
13.477026
10.461565
7.9099845
6.1165162
4.9286238
4.1628371
3.6492674
3.2779097
2.9988134
2.7867978
2.6246441
2.4998823
2.4027972
2.3261923
2.2648049
2.2149871
2.1740258
2.1397766
2.1107443
2.0858007
2.0640938
22.545857
22.154512
21.60508
21.235354
20.875645
20.43643
19.673952
18.284008
16.21322
13.48346
10.465764
7.9112429
6.116479
4.9285839
4.1630042
3.6494867
3.2781023
2.998964
2.7869162
2.6247408
2.4999652
2.4028709
2.3262599
2.2648677
2.2150463
2.1740823
2.1398313
2.1107976
2.0858526
2.0641446
22.549212
22.157628
21.607528
21.236946
20.875909
20.435631
19.674145
18.288303
16.220055
13.489848
10.469915
7.9124732
6.116439
4.9285505
4.1631776
3.6497108
3.2782986
2.9991172
2.7870363
2.6248389
2.500049
2.4029454
2.3263281
2.2649315
2.2151067
2.1741401
2.1398869
2.1108513
2.0859049
2.0641958
22.55257
22.160753
21.609996
21.238567
20.876211
20.434858
19.674313
18.292556
16.226842
13.496191
10.474016
7.9136746
6.1163964
4.9285236
4.1633575
3.6499401
3.2784986
2.9992733
2.7871586
2.6249388
2.5001343
2.4030211
2.3263972
2.2649961
2.2151678
2.1741985
2.1399432
2.1109059
2.0859581
2.0642477
22.555931
22.163885
21.612483
21.240217
20.87655
20.434111
19.674461
18.296767
16.23358
13.502489
10.478067
7.9148465
6.1163514
4.928503
4.1635437
3.6501742
3.2787022
2.9994317
2.7872823
2.6250398
2.5002204
2.4030974
2.3264671
2.2650614
2.2152295
2.1742574
2.1399998
2.1109606
2.0860112
2.0642995
22.559295
22.167025
21.614988
21.241898
20.876928
20.433388
19.674591
18.300935
16.240268
13.508741
10.482065
7.9159885
6.1163044
4.9284895
4.1637366
3.6504137
3.2789097
2.9995931
2.7874085
2.6251425
2.500308
2.403175
2.3265379
2.2651272
2.2152916
2.1743166
2.1400569
2.111016
2.0860652
2.0643523
22.562662
22.170173
21.617513
21.243609
20.877344
20.432688
19.674705
18.305059
16.246904
13.514948
10.486016
7.9171013
6.1162558
4.9284827
4.1639359
3.6506581
3.2791209
2.999757
2.7875365
2.6252466
2.5003965
2.4032533
2.3266093
2.2651939
2.2153545
2.1743767
2.1401146
2.1110718
2.0861194
2.0644053
22.566032
22.173328
21.620057
21.245351
20.877798
20.432014
19.674806
18.309138
16.253488
13.521107
10.489913
7.9181866
6.1162054
4.9284827
4.1641416
3.6509076
3.2793359
2.9999236
2.7876666
2.6253525
2.5004865
2.4033328
2.3266817
2.2652614
2.2154182
2.1744374
2.1401731
2.1111284
2.0861745
2.064459
22.569405
22.176491
21.62262
21.247123
20.87829
20.431364
19.674896
18.313173
16.260019
13.527219
10.493759
7.9192444
6.1161537
4.9284894
4.1643537
3.6511622
3.2795546
3.000093
2.7877987
2.6254597
2.5005776
2.4034131
2.3267548
2.2653294
2.2154824
2.1744986
2.1402319
2.1111851
2.0862296
2.0645128
22.57278
22.179661
21.625201
21.248926
20.87882
20.430739
19.674975
18.317163
16.266497
13.533285
10.49755
7.9202735
6.1161008
4.9285032
4.1645723
3.6514221
3.2797774
3.0002655
2.787933
2.6255687
2.5006701
2.4034948
2.326829
2.265398
2.2155468
2.1745599
2.140291
2.1112425
2.0862855
2.0645674
22.576159
22.182838
21.6278
21.25076
20.879389
20.430139
19.675045
18.321108
16.272921
13.539305