/*--------------------------------*- C++ -*----------------------------------*\
| =========                 |                                                 |
| \\      /  F ield         | OpenFOAM: The Open Source CFD Toolbox           |
|  \\    /   O peration     | Version:  v2012                                 |
|   \\  /    A nd           | Website:  www.openfoam.com                      |
|    \\/     M anipulation  |                                                 |
\*---------------------------------------------------------------------------*/
FoamFile
{
    version     2.0;
    format      ascii;
    class       volScalarField;
    location    "150";
    object      T;
}
// * * * * * * * * * * * * * * * * * * * * * * * * * * * * * * * * * * * * * //

dimensions      [0 0 0 1 0 0 0];


internalField   nonuniform List<scalar> 
24000
(
42.749162
42.984225
43.296725
43.491916
43.708627
44.114193
45.131628
47.171107
51.134746
59.231596
74.751308
97.300601
122.61116
149.07277
174.16351
195.94037
215.01443
231.59199
245.82065
257.9449
268.23044
276.93302
284.30241
290.57256
295.94481
300.5849
304.62696
308.17909
311.32869
314.14666
42.748113
42.983478
43.29671
43.492546
43.709653
44.114886
45.131374
47.169618
51.134568
59.23221
74.694025
97.132413
122.31649
148.64909
173.67093
195.39609
214.44127
231.01653
245.25874
257.40681
267.71992
276.44758
283.83705
290.12205
295.50483
300.15232
304.19967
307.75582
310.90865
313.72941
42.747058
42.982715
43.296667
43.493501
43.711168
44.115018
45.130103
47.165213
51.123416
59.199135
74.625416
97.028479
122.17202
148.46105
173.44366
195.13256
214.14996
230.70672
244.94036
257.08791
267.40788
276.14744
283.54933
289.84475
295.23517
299.88782
303.93856
307.49701
310.65164
313.47405
42.745992
42.981934
43.296588
43.494245
43.712334
44.1152
45.128598
47.159871
51.111713
59.176765
74.597091
97.010072
122.166
148.46272
173.45172
195.15202
214.18949
230.77353
245.03418
257.20322
267.53601
276.28008
283.68147
289.97417
295.36142
300.01124
304.05975
307.61655
310.76997
313.5915
42.744918
42.981138
43.296477
43.494889
43.713379
44.115406
45.126806
47.154011
51.100361
59.15667
74.574039
97.002185
122.17784
148.48429
173.46966
195.16469
214.19848
230.77906
245.03588
257.20086
267.5306
276.2732
283.67396
289.96642
295.35356
300.00332
304.05179
307.60855
310.76197
313.58354
42.743835
42.980325
43.296337
43.495442
43.714321
44.115615
45.124895
47.147983
51.089083
59.136742
74.552685
96.999087
122.19746
148.51675
173.50011
195.19015
214.22073
230.79928
245.05467
257.21853
267.54728
276.28897
283.68891
289.98066
295.36723
300.01654
304.06466
307.62119
310.77444
313.5959
42.742743
42.979497
43.29617
43.49593
43.715199
44.11583
45.122892
47.141772
51.077576
59.116873
74.530999
96.996154
122.21753
148.54985
173.53091
195.21538
214.242
230.81755
245.07057
257.23251
267.5597
276.30014
283.69912
289.99016
295.37619
300.02512
304.07297
307.6293
310.78243
313.60382
42.741643
42.978654
43.295981
43.49637
43.716025
44.116052
45.120808
47.135385
51.065752
59.097025
74.508361
96.992208
122.23654
148.58184
173.56069
195.23976
214.26252
230.83516
245.08588
257.24597
267.57166
276.3109
283.70895
289.99928
295.3848
300.03335
304.08093
307.63708
310.79009
313.61141
42.740534
42.977797
43.29577
43.496769
43.716805
44.116291
45.11865
47.128827
51.053609
59.077204
74.484626
96.986919
122.25393
148.61195
173.58868
195.26253
214.28155
230.85135
245.0998
257.25804
267.58221
276.32024
283.71735
290.00698
295.39198
300.04016
304.08747
307.64344
310.79633
313.61759
42.739417
42.976927
43.295539
43.497128
43.717543
44.116556
45.116426
47.122116
51.041171
59.057419
74.459845
96.980338
122.26969
148.64017
173.61484
195.28369
214.29916
230.86626
245.11253
257.26897
267.59166
276.32849
283.72466
290.01359
295.39806
300.04585
304.09289
307.64868
310.80146
313.62267
42.738292
42.976043
43.295289
43.497454
43.718247
44.116836
45.114145
47.115282
51.028476
59.037286
74.434834
96.972643
122.284
148.66667
173.63933
195.3034
214.31551
230.88004
245.12422
257.27893
267.60016
276.33581
283.73105
290.01926
295.40321
300.05061
304.09738
307.65299
310.80566
313.62682
42.737159
42.975146
43.29502
43.497751
43.718921
44.117125
45.111816
47.10834
51.015553
59.016754
74.40986
96.964054
122.29713
148.69175
173.66244
195.32191
214.33083
230.89296
245.13517
257.28821
267.60804
276.34253
283.73686
290.02436
295.40778
300.0548
304.10129
307.65672
310.80929
313.6304
42.736018
42.974236
43.294735
43.498023
43.719571
44.117421
45.109444
47.101307
51.002441
58.9959
74.384948
96.954782
122.30934
148.71567
173.6844
195.33943
214.34531
230.90517
245.14552
257.29698
267.61545
276.34881
283.74224
290.02905
295.41194
300.05858
304.10481
307.66006
310.81253
313.63359
42.73487
42.973314
43.294431
43.498271
43.720201
44.11772
45.107035
47.094195
50.98918
58.9748
74.360121
96.945
122.32082
148.73861
173.70538
195.3561
214.35908
230.9168
245.1554
257.30536
267.62253
276.35479
283.74735
290.03348
295.41587
300.06213
304.10809
307.66317
310.81553
313.63656
42.733716
42.972379
43.294112
43.498496
43.720814
44.118022
45.104596
47.087017
50.975794
58.953514
74.335392
96.934842
122.33171
148.76073
173.72549
195.37199
214.37216
230.92783
245.16476
257.31326
267.62918
276.36038
283.75208
290.03755
295.41944
300.06534
304.11105
307.66595
310.81822
313.63921
42.732554
42.971432
43.293776
43.498702
43.721411
44.118325
45.102129
47.079788
50.96232
58.932106
74.310776
96.924409
122.34213
148.78212
173.74481
195.38713
214.38456
230.93825
245.17355
257.32065
267.63534
276.3655
283.75637
290.0412
295.4226
300.06814
304.1136
307.66834
310.82052
313.64147
42.731384
42.970472
43.293423
43.498889
43.721994
44.118628
45.09964
47.072512
50.948761
58.910593
74.286286
96.913778
122.35216
148.80286
173.76338
195.40157
214.39629
230.94805
245.18177
257.32749
267.64097
276.37012
283.76017
290.04437
295.42529
300.07049
304.11571
307.67029
310.82238
313.64329
42.730206
42.9695
43.293055
43.499058
43.722565
44.11893
45.09713
47.065196
50.935129
58.889002
74.261926
96.90302
122.36188
148.82305
173.78133
195.4154
214.40747
230.95734
245.18953
257.33393
267.64625
276.37441
283.76366
290.04723
295.42768
300.07253
304.11751
307.67194
310.82394
313.64482
42.729021
42.968516
43.292671
43.499212
43.723125
44.11923
45.094604
47.057854
50.921443
58.867353
74.237707
96.892193
122.37136
148.84276
173.7987
195.42869
214.41814
230.96618
245.19688
257.33999
267.65117
276.37836
283.76683
290.04979
295.42979
300.07431
304.11905
307.67333
310.82524
313.64609
42.727827
42.96752
43.292272
43.499351
43.723674
44.119526
45.092062
47.050484
50.907712
58.845675
74.213636
96.881347
122.38067
148.86207
173.81558
195.4415
214.42837
230.97463
245.20389
257.34574
267.65582
276.38207
283.76977
290.05214
295.43169
300.07588
304.12039
307.67452
310.82635
313.64718
42.726626
42.966512
43.291857
43.499475
43.724213
44.119819
45.089507
47.043088
50.893952
58.823994
74.189715
96.870522
122.38984
148.88101
173.83201
195.45388
214.4382
230.98271
245.21056
257.35119
267.6602
276.38553
283.77249
290.05428
295.43339
300.07727
304.12156
307.67555
310.8273
313.6481
42.725417
42.965492
43.291426
43.499586
43.724743
44.120107
45.086941
47.035671
50.88016
58.802308
74.165954
96.859755
122.39892
148.89966
173.84805
195.46588
214.4477
230.9905
245.217
257.35645
267.66441
276.38884
283.77507
290.05629
295.43497
300.07853
304.1226
307.67644
310.82812
313.64889
42.7242
42.964459
43.29098
43.499684
43.725265
44.12039
45.084365
47.028238
50.86634
58.780625
74.142354
96.849065
122.40793
148.91801
173.86371
195.47751
214.45684
230.99797
245.22313
257.36143
267.66837
276.39192
283.77744
290.05811
295.43637
300.07962
304.12348
307.67719
310.82879
313.64954
42.722975
42.963415
43.290518
43.499769
43.725779
44.120666
45.081781
47.020796
50.8525
58.758955
74.118917
96.838472
122.4169
148.9361
173.87901
195.48879
214.46565
231.00514
245.22901
257.36618
267.67212
276.39482
283.77965
290.05977
295.43762
300.08057
304.12422
307.67779
310.82932
313.65005
42.721743
42.962359
43.290041
43.499842
43.726284
44.120936
45.079189
47.013341
50.838648
58.737329
74.095649
96.827988
122.42582
148.95394
173.89396
195.49972
214.47414
231.01201
245.23461
257.37067
267.67564
276.3975
283.78164
290.06124
295.43869
300.08135
304.1248
307.67824
310.8297
313.6504
42.720503
42.961292
43.289548
43.499903
43.726784
44.121198
45.076591
47.005879
50.824791
58.715732
74.072548
96.817624
122.43471
148.97154
173.9086
195.51034
214.48235
231.01864
245.24001
257.375
267.67901
276.40005
283.78353
290.0626
295.43964
300.08201
304.12526
307.67857
310.82996
313.65064
42.719255
42.960214
43.28904
43.499952
43.727275
44.121451
45.073989
46.99842
50.810928
58.694167
74.049616
96.807386
122.44359
148.9889
173.9229
195.52064
214.49025
231.02499
245.24514
257.37909
267.68217
276.40241
283.78523
290.06379
295.44045
300.08254
304.12559
307.67878
310.8301
313.65076
42.717999
42.959123
43.288515
43.49999
43.72776
44.121695
45.071384
46.990955
50.797056
58.672637
74.026859
96.797281
122.45244
149.00603
173.93689
195.53062
214.49787
231.03108
245.25005
257.38298
267.68515
276.4046
283.78678
290.06483
295.44112
300.08293
304.12578
307.67885
310.83011
313.65075
42.716736
42.958021
43.287975
43.500018
43.728237
44.121929
45.06878
46.983489
50.783184
58.651161
74.004274
96.787313
122.46128
149.02293
173.95057
195.5403
214.50519
231.03689
245.2547
257.38663
267.68791
276.40659
283.78814
290.06571
295.44162
300.08316
304.12583
307.67878
310.82998
313.6506
42.715465
42.956907
43.287419
43.500034
43.728708
44.122152
45.066174
46.976023
50.769316
58.629743
73.981861
96.777491
122.47012
149.03962
173.96395
195.5497
214.51227
231.04251
245.25919
257.39015
267.69055
276.40848
283.78941
290.06649
295.44203
300.0833
304.12578
307.67861
310.82974
313.65035
42.714186
42.955782
43.286847
43.50004
43.729172
44.122364
45.06357
46.968566
50.755459
58.608376
73.959622
96.767815
122.47894
149.05609
173.97703
195.55881
214.51909
231.04788
245.26346
257.39347
267.69303
276.41022
283.79054
290.06715
295.44233
300.08334
304.12564
307.67836
310.82943
313.65002
42.7129
42.954644
43.286258
43.500036
43.729628
44.122565
45.060971
46.961115
50.741612
58.587063
73.937557
96.758285
122.48776
149.07234
173.98981
195.56765
214.52567
231.05305
245.26756
257.39664
267.69537
276.41185
283.79158
290.06772
295.44256
300.08331
304.12543
307.67803
310.82905
313.64962
42.711605
42.953498
43.285653
43.50002
43.730078
44.122752
45.058375
46.953671
50.727772
58.56581
73.915664
96.748908
122.49657
149.08838
174.00232
195.57622
214.53201
231.05802
245.27148
257.39965
267.69757
276.41334
283.7925
290.06819
295.44268
300.08319
304.12514
307.67763
310.82859
313.64915
42.710305
42.95234
43.285032
43.499994
43.730519
44.122928
45.055783
46.946246
50.713949
58.544645
73.893945
96.739688
122.50539
149.10422
174.01456
195.58456
214.53817
231.06285
245.2753
257.40261
267.69974
276.41482
283.7934
290.06864
295.44279
300.08304
304.12482
307.6772
310.82809
313.64864
42.708997
42.95117
43.284394
43.499957
43.730953
44.123091
45.053196
46.938836
50.700146
58.523547
73.872401
96.73062
122.5142
149.11985
174.02652
195.59265
214.54411
231.06749
245.27897
257.40543
267.7018
276.4162
283.79424
290.06904
295.44285
300.08286
304.12447
307.67675
310.82759
313.64813
42.707682
42.949989
43.283739
43.499909
43.731378
44.123242
45.050616
46.93144
50.686369
58.502522
73.851027
96.721705
122.523
149.13526
174.0382
195.60048
214.54984
231.07197
245.28251
257.40816
267.70379
276.41754
283.79504
290.06941
295.44291
300.08268
304.12412
307.67629
310.82708
313.6476
42.706359
42.948797
43.283067
43.499849
43.731795
44.123381
45.048044
46.924062
50.67262
58.481572
73.829825
96.71294
122.53179
149.15046
174.04959
195.60805
214.55535
231.07626
245.2859
257.41076
267.70567
276.41879
283.79577
290.06973
295.44291
300.08246
304.12375
307.67582
310.82655
313.64707
42.705029
42.947593
43.282378
43.499777
43.732201
44.123507
45.045482
46.916709
50.658894
58.460718
73.808793
96.704328
122.54057
149.16544
174.06073
195.61539
214.56069
231.08044
245.28922
257.41333
267.70755
276.42005
283.79651
290.07007
295.44293
300.08224
304.12337
307.67534
310.82602
313.64652
42.703691
42.946378
43.281672
43.499692
43.732598
44.123622
45.04293
46.90938
50.645203
58.439961
73.787929
96.695861
122.54933
149.1802
174.07157
195.62246
214.56577
231.0844
245.29235
257.41574
267.7093
276.42121
283.79718
290.07034
295.44291
300.082
304.12298
307.67485
310.82549
313.64597
42.702346
42.945151
43.280949
43.499595
43.732984
44.123725
45.040391
46.902077
50.631547
58.419293
73.767231
96.687534
122.55805
149.19471
174.08211
195.62925
214.57063
231.08817
245.29534
257.41804
267.71096
276.4223
283.79779
290.07058
295.44285
300.08173
304.12256
307.67434
310.82492
313.6454
42.700993
42.943913
43.280209
43.499484
43.733359
44.123816
45.037865
46.894804
50.617933
58.39872
73.746702
96.679341
122.56673
149.20898
174.09233
195.63574
214.57522
231.09171
245.29812
257.42016
267.71247
276.42326
283.79829
290.07071
295.44272
300.0814
304.12209
307.67378
310.82432
313.64479
42.699632
42.942665
43.27945
43.499358
43.733722
44.123896
45.035355
46.887568
50.604365
58.378248
73.726337
96.671284
122.57538
149.22302
174.10227
195.64197
214.5796
231.0951
245.30081
257.42223
267.71395
276.42421
283.79878
290.07084
295.44256
300.08104
304.12158
307.67318
310.82367
313.64413
42.698265
42.941405
43.278675
43.499218
43.734074
44.123965
45.03286
46.880365
50.590836
58.3579
73.706133
96.663356
122.58397
149.23679
174.11188
195.6479
214.58371
231.09825
245.30329
257.42412
267.71528
276.42503
283.79918
290.07089
295.44235
300.08063
304.12104
307.67256
310.82301
313.64346
42.696892
42.940134
43.277881
43.499062
43.734412
44.124023
45.030383
46.873196
50.577358
58.337661
73.686092
96.655548
122.5925
149.25031
174.12117
195.65353
214.58757
231.1012
245.3056
257.42587
267.7165
276.42577
283.7995
290.07089
295.44209
300.08019
304.12047
307.6719
310.82231
313.64275
42.695512
42.938852
43.27707
43.498889
43.734736
44.124069
45.027924
46.866065
50.563931
58.317534
73.66621
96.647853
122.60095
149.26356
174.13013
195.65885
214.59114
231.10389
245.3077
257.42744
267.71756
276.42636
283.79971
290.07078
295.44175
300.07967
304.11984
307.6712
310.82157
313.642
42.694125
42.937559
43.276241
43.4987
43.735045
44.124104
45.025485
46.858979
50.550561
58.297525
73.646483
96.640264
122.60932
149.27654
174.13878
195.66388
214.59448
231.10641
245.30967
257.42892
267.71857
276.42692
283.79989
290.07065
295.44138
300.07912
304.11916
307.67044
310.82077
313.64119
42.692731
42.936255
43.275394
43.498493
43.735339
44.124127
45.023068
46.851933
50.537252
58.277644
73.626909
96.632768
122.61759
149.28924
174.14708
195.66858
214.59752
231.10867
245.31141
257.43021
267.71941
276.42734
283.79995
290.07042
295.44093
300.07851
304.11844
307.66965
310.81994
313.64036
42.691329
42.934941
43.274529
43.498267
43.735616
44.124139
45.020674
46.844929
50.523996
58.257902
73.607493
96.625363
122.62576
149.30166
174.15504
195.67296
214.60028
231.11069
245.31296
257.43134
267.72012
276.42766
283.79992
290.07012
295.44042
300.07784
304.11766
307.6688
310.81906
313.63947
42.68992
42.933616
43.273647
43.498023
43.735876
44.124139
45.018301
46.837976
50.510803
58.238287
73.588225
96.618041
122.63381
149.31378
174.16263
195.677
214.60274
231.11244
245.31427
257.43225
267.72064
276.42781
283.79976
290.0697
295.4398
300.07708
304.1168
307.66788
310.81812
313.63852
42.688504
42.932281
43.272746
43.497759
43.736118
44.124129
45.015952
46.831072
50.497674
58.218805
73.569104
96.610797
122.64174
149.32562
174.16991
195.68076
214.60495
231.11401
245.31546
257.43309
267.72111
276.42793
283.79956
290.06924
295.43914
300.07627
304.11588
307.6669
310.8171
313.6375
42.687081
42.930935
43.271828
43.497475
43.73634
44.124109
45.013629
46.824215
50.48461
58.199459
73.550129
96.603616
122.64953
149.33715
174.17682
195.68416
214.60685
231.1153
245.3164
257.43371
267.7214
276.42788
283.79923
290.06868
295.4384
300.07539
304.11492
307.66588
310.81605
313.63645
42.68565
42.929579
43.270892
43.497169
43.736542
44.124079
45.011331
46.817406
50.47162
58.180266
73.531297
96.596496
122.65718
149.34837
174.18336
195.68722
214.60846
231.11634
245.31713
257.43416
267.72155
276.42773
283.79881
290.06804
295.43758
300.07445
304.11388
307.66479
310.81493
313.63533
42.684213
42.928212
43.269938
43.496841
43.736722
44.124039
45.009057
46.810648
50.458696
58.161227
73.512602
96.58943
122.66468
149.35928
174.18954
195.68993
214.60974
231.11709
245.3176
257.43438
267.72149
276.4274
283.79823
290.06726
295.43665
300.07341
304.11277
307.66363
310.81375
313.63415
42.682768
42.926835
43.268967
43.496491
43.736881
44.123989
45.006807
46.803945
50.445842
58.142336
73.494041
96.582414
122.67203
149.36989
174.19537
195.69233
214.61076
231.11764
245.31793
257.4345
267.72137
276.42702
283.79761
290.06644
295.43567
300.07231
304.11158
307.66239
310.81249
313.63289
42.681316
42.925448
43.267978
43.496118
43.737017
44.123928
45.004581
46.797293
50.433064
58.123598
73.475616
96.575435
122.6792
149.38017
174.20083
195.69437
214.61146
231.11791
245.318
257.4344
267.72105
276.42646
283.79684
290.06549
295.43459
300.07113
304.11033
307.6611
310.81118
313.63158
42.679857
42.924052
43.266972
43.495722
43.73713
44.123855
45.00238
46.790692
50.420356
58.105014
73.457318
96.568486
122.68618
149.39013
174.20591
195.69607
214.61185
231.11791
245.31785
257.43411
267.72057
276.42578
283.79597
290.06446
295.43342
300.06986
304.109
307.65973
310.80979
313.63019
42.678391
42.922647
43.265949
43.495305
43.73722
44.123769
45.000204
46.784148
50.407733
58.086605
73.439143
96.561558
122.69297
149.39974
174.21061
195.6974
214.61191
231.11761
245.31745
257.43359
267.71989
276.42492
283.79493
290.06327
295.43213
300.06849
304.10757
307.65827
310.80832
313.62872
42.676918
42.921232
43.264909
43.494865
43.737286
44.123667
44.998051
46.777662
50.395182
58.068364
73.421087
96.55465
122.69956
149.40904
174.21495
195.69842
214.61172
231.11712
245.31689
257.43296
267.71913
276.42399
283.79383
290.06203
295.43077
300.06704
304.10607
307.65673
310.80676
313.62717
42.675438
42.919808
43.263852
43.494404
43.737328
44.123548
44.995923
46.771228
50.382705
58.050288
73.403147
96.547748
122.70594
149.41798
174.2189
195.69906
214.61117
231.11631
245.31605
257.43208
267.71816
276.42287
283.79258
290.06066
295.4293
300.0655
304.10448
307.65511
310.80513
313.62554
42.673952
42.918374
43.262779
43.493921
43.737347
44.123412
44.993819
46.764847
50.37031
58.03238
73.385315
96.540846
122.7121
149.42657
174.22245
195.69933
214.61031
231.11523
245.31499
257.43101
267.71702
276.42162
283.7912
290.05917
295.42773
300.06387
304.1028
307.6534
310.80342
313.62383
42.672461
42.91693
43.26169
43.493415
43.737341
44.123262
44.991738
46.75852
50.357989
58.014643
73.367586
96.533942
122.71802
149.4348
174.22561
195.69924
214.6091
231.11384
245.31364
257.42969
267.71565
276.42016
283.78965
290.05753
295.42602
300.0621
304.10101
307.65159
310.8016
313.62203
42.670963
42.915478
43.260584
43.492886
43.737309
44.123099
44.989679
46.75225
50.345751
57.997095
73.349957
96.527034
122.72371
149.44268
174.22839
195.6988
214.60761
231.11223
245.31211
257.42823
267.71418
276.41862
283.78802
290.05581
295.42423
300.06026
304.09912
307.64969
310.7997
313.62012
42.669458
42.914018
43.259462
43.492332
43.737251
44.122924
44.987643
46.746033
50.333595
57.979735
73.332423
96.520111
122.72915
149.45018
174.23076
195.69799
214.60577
231.11029
245.3103
257.42652
267.71248
276.41688
283.78621
290.05394
295.4223
300.0583
304.09714
307.64769
310.7977
313.61813
42.667946
42.912549
43.258324
43.491756
43.737166
44.122735
44.985629
46.739867
50.321516
57.96256
73.314974
96.513176
122.73434
149.45731
174.23273
195.69681
214.60361
231.10807
245.30825
257.42459
267.7106
276.41497
283.78426
290.05194
295.42026
300.05622
304.09504
307.64559
310.79559
313.61604
42.666428
42.911071
43.257171
43.491156
43.737056
44.122531
44.983635
46.733753
50.309521
57.945574
73.297603
96.506225
122.73927
149.46407
174.23429
195.69526
214.60111
231.10555
245.30592
257.42242
267.70849
276.41286
283.78211
290.04977
295.41806
300.054
304.09281
307.64335
310.79336
313.61382
42.664903
42.909584
43.256003
43.490534
43.736921
44.122313
44.981661
46.727701
50.297608
57.928758
73.280348
96.499262
122.74395
149.47046
174.23548
195.69337
214.59834
231.10281
245.30342
257.42011
267.70628
276.41066
283.77989
290.04751
295.41577
300.05168
304.09047
307.64101
310.79102
313.61149
42.663372
42.908088
43.254821
43.489889
43.736759
44.122078
44.979706
46.721701
50.285772
57.912098
73.263243
96.492275
122.74836
149.47645
174.23625
195.69111
214.59522
231.09976
245.30064
257.41755
267.70383
276.40826
283.77749
290.04509
295.41333
300.04924
304.08803
307.63857
310.78859
313.60907
42.661834
42.906583
43.253627
43.489224
43.736573
44.121826
44.977769
46.715753
50.27403
57.895597
73.246292
96.485261
122.75248
149.48206
174.23661
195.68848
214.59177
231.09643
245.29761
257.41479
267.70121
276.4057
283.77494
290.04255
295.41078
300.04668
304.08547
307.63601
310.78604
313.60653
42.660291
42.905068
43.252419
43.488538
43.736362
44.121556
44.97585
46.709856
50.262369
57.879238
73.229505
96.478214
122.75632
149.48725
174.23654
195.68545
214.58798
231.09278
245.2943
257.41175
267.69835
276.40292
283.7722
290.03981
295.40806
300.04397
304.08277
307.63332
310.78336
313.60387
42.658744
42.903545
43.251197
43.487831
43.736126
44.121268
44.97395
46.704014
50.250791
57.863021
73.212886
96.471133
122.75987
149.49206
174.23608
195.68209
214.58391
231.08891
245.29082
257.40859
267.69538
276.40005
283.76937
290.037
295.40525
300.04116
304.07996
307.63052
310.78057
313.6011
42.65719
42.902013
43.249961
43.487105
43.735866
44.120959
44.972065
46.698227
50.239305
57.846944
73.196438
96.464009
122.76312
149.49644
174.23517
195.67833
214.57947
231.08471
245.28704
257.40515
267.69217
276.39696
283.76634
290.03401
295.40229
300.03821
304.07703
307.62761
310.77768
313.59822
42.655629
42.900473
43.248712
43.48636
43.735582
44.12063
44.970194
46.692491
50.227904
57.831009
73.180158
96.456839
122.76606
149.5004
174.23383
195.67419
214.57471
231.08023
245.28301
257.40151
267.68877
276.3937
283.76317
290.03089
295.3992
300.03515
304.07398
307.62457
310.77466
313.59523
42.654063
42.898923
43.247448
43.485598
43.735276
44.12028
44.968337
46.686807
50.216592
57.815227
73.164046
96.449618
122.76869
149.50393
174.23206
195.66965
214.5696
231.07543
245.2787
257.3976
267.68513
276.39023
283.7598
290.02759
295.39594
300.03193
304.07079
307.62141
310.77152
313.59211
42.65249
42.897365
43.246171
43.484818
43.734946
44.119907
44.966493
46.681175
50.205379
57.799596
73.148107
96.442352
122.771
149.50705
174.22988
195.66479
214.56422
231.07043
245.27424
257.39358
267.68141
276.38669
283.75636
290.02421
295.39261
300.02862
304.06751
307.61815
310.76828
313.58888
42.650911
42.895799
43.244881
43.484021
43.734594
44.119513
44.964664
46.675601
50.194257
57.784108
73.132338
96.435029
122.77299
149.50973
174.22725
195.65951
214.55847
231.0651
245.26947
257.38928
267.67744
276.38292
283.75272
290.02066
295.38911
300.02517
304.0641
307.61476
310.76492
313.58554
42.649325
42.894224
43.243577
43.483206
43.73422
44.119096
44.962847
46.670082
50.183227
57.768764
73.11674
96.427644
122.77464
149.51196
174.22417
195.65384
214.55239
231.05948
245.26446
257.38477
267.67328
276.37899
283.74894
290.01697
295.38549
300.0216
304.06056
307.61125
310.76143
313.58208
42.647734
42.892641
43.242259
43.482375
43.733825
44.118656
44.961041
46.664614
50.172298
57.753564
73.101312
96.420192
122.77593
149.51374
174.22063
195.64775
214.54594
231.05352
245.25914
257.37999
267.66887
276.37482
283.74493
290.01308
295.38169
300.01786
304.05687
307.60761
310.75782
313.57849
42.646136
42.89105
43.240928
43.481528
43.733409
44.118193
44.959245
46.659199
50.161463
57.73851
73.086054
96.412677
122.77689
149.51508
174.21668
195.64132
214.53921
231.04736
245.25367
257.37509
267.66438
276.37059
283.74087
290.00913
295.37781
300.01403
304.05309
307.60385
310.75409
313.5748
42.644532
42.88945
43.239584
43.480663
43.732971
44.11771
44.957459
46.653838
50.150725
57.723609
73.070972
96.405088
122.77748
149.51596
174.21226
195.63448
214.53212
231.04087
245.24791
257.36993
267.65965
276.36615
283.73662
290.00501
295.37379
300.01009
304.0492
307.60001
310.75028
313.57101
42.642923
42.887842
43.238226
43.47978
43.732512
44.117207
44.955683
46.648534
50.140097
57.708862
73.056062
96.397423
122.77771
149.51638
174.20738
195.62723
214.52469
231.0341
245.24191
257.36457
267.65474
276.36156
283.73224
290.00078
295.36967
300.00604
304.04521
307.59606
310.74637
313.56713
42.641307
42.886227
43.236854
43.478879
43.732032
44.116686
44.953915
46.643282
50.129567
57.69426
73.041326
96.389677
122.77757
149.51633
174.20204
195.61957
214.51688
231.027
245.23562
257.35893
267.64959
276.35673
283.72765
289.99636
295.36537
300.00184
304.04107
307.59198
310.74233
313.56311
42.639685
42.884605
43.235469
43.477958
43.731531
44.116148
44.952156
46.638084
50.119138
57.679804
73.026762
96.381851
122.77706
149.51582
174.19626
195.61154
214.50879
231.01969
245.22917
257.35319
267.64436
276.35185
283.723
289.99186
295.36099
299.99754
304.03683
307.58779
310.73817
313.55899
42.638058
42.882976
43.23407
43.47702
43.731007
44.115593
44.950405
46.632939
50.108819
57.665493
73.01237
96.373934
122.77615
149.51483
174.19001
195.60309
214.50032
231.01203
245.22241
257.34717
267.63888
276.34674
283.71814
289.9872
295.35645
299.9931
304.03248
307.58349
310.73391
313.55476
42.636427
42.881339
43.232658
43.476063
43.730461
44.115021
44.948662
46.627847
50.098602
57.651327
72.998146
96.365922
122.77485
149.51336
174.18328
195.5942
214.49148
231.00406
245.21539
257.34093
267.63321
276.34147
283.71315
289.9824
295.3518
299.98856
304.02801
307.57907
310.72954
313.55042
42.63479
42.879694
43.231232
43.475087
43.729894
44.114434
44.946926
46.622814
50.088488
57.637314
72.984087
96.357808
122.77314
149.51138
174.17607
195.58488
214.48224
230.99574
245.20805
257.3344
267.62728
276.33596
283.70794
289.97741
295.34697
299.98385
304.02339
307.57453
310.72504
313.54596
42.633148
42.878041
43.229793
43.474091
43.729305
44.113831
44.945196
46.617838
50.078486
57.623453
72.970192
96.349595
122.77103
149.50894
174.16841
195.57517
214.47269
230.98718
245.20054
257.32776
267.62126
276.33038
283.70267
289.97235
295.34207
299.97906
304.01868
307.56988
310.72044
313.54138
42.6315
42.876384
43.22834
43.473077
43.728694
44.113213
44.943472
46.612916
50.068594
57.609738
72.956458
96.341272
122.76851
149.50598
174.16025
195.56501
214.46273
230.97825
245.1927
257.32081
267.61497
276.32456
283.69718
289.96711
295.33701
299.97413
304.01385
307.56511
310.71573
313.53671
42.629846
42.87472
43.226874
43.472043
43.728062
44.112582
44.941754
46.608049
50.058809
57.596166
72.942888
96.332845
122.76557
149.50254
174.15161
195.55441
214.4524
230.96901
245.18459
257.31363
267.6085
276.31858
283.69156
289.96174
295.33182
299.96908
304.0089
307.56024
310.71091
313.53192
42.628186
42.873048
43.225395
43.470988
43.727409
44.111937
44.94004
46.603237
50.049138
57.582736
72.929485
96.324311
122.76222
149.4986
174.1425
195.54338
214.44168
230.95941
245.17617
257.30617
267.60175
276.31236
283.68571
289.95617
295.32646
299.96387
304.0038
307.55523
310.70595
313.52701
42.626521
42.87137
43.223902
43.469913
43.726734
44.111278
44.938332
46.598486
50.03958
57.569449
72.916244
96.315673
122.75846
149.49419
174.13294
195.53197
214.43065
230.94959
245.16758
257.2986
267.59493
276.30607
283.67981
289.95054
295.32102
299.95858
303.99862
307.55012
310.7009
313.52199
42.624851
42.869684
43.222397
43.468818
43.726037
44.110606
44.936629
46.593793
50.030131
57.556304
72.903162
96.306921
122.75428
149.48928
174.1229
195.52013
214.41923
230.93941
245.15867
257.29073
267.58785
276.29955
283.6737
289.94473
295.31543
299.95315
303.99331
307.54489
310.69573
313.51687
42.623177
42.867991
43.220879
43.467703
43.725318
44.10992
44.934931
46.589157
50.020795
57.543304
72.89024
96.298056
122.74968
149.48388
174.11239
195.50786
214.40745
230.92892
245.14951
257.28266
267.58059
276.29289
283.66746
289.9388
295.30973
299.94762
303.9879
307.53957
310.69047
313.51165
42.6215
42.86629
43.219348
43.466566
43.724577
44.109221
44.933238
46.584578
50.011579
57.530452
72.877478
96.289076
122.74466
149.47798
174.10141
195.49516
214.39527
230.91809
245.1404
257.27429
267.57307
276.28599
283.66101
289.93269
295.30387
299.94194
303.98235
307.53412
310.68509
313.50632
42.619817
42.864583
43.217804
43.465409
43.723813
44.108509
44.93155
46.580058
50.00248
57.517737
72.864874
96.279983
122.73922
149.47161
174.08999
195.48209
214.38279
230.90701
245.13074
257.2658
267.56546
276.27901
283.65449
289.9265
295.29793
299.93617
303.97672
307.52858
310.67962
313.50088
42.618129
42.862869
43.216249
43.464231
43.723026
44.107785
44.929868
46.575597
49.993494
57.505159
72.852424
96.270771
122.73335
149.46473
174.07808
195.46857
214.36991
230.89558
245.12076
257.25701
267.55758
276.2718
283.64777
289.92014
295.29183
299.93027
303.97096
307.52293
310.67403
313.49534
42.616435
42.861149
43.214684
43.463032
43.722217
44.107048
44.928191
46.571196
49.984628
57.492715
72.840126
96.261439
122.72705
149.45737
174.06571
195.45465
214.35667
230.88384
245.11051
257.24801
267.54952
276.26443
283.6409
289.91364
295.28561
299.92425
303.96509
307.51716
310.66834
313.48969
42.614736
42.859421
43.213109
43.461811
43.721384
44.106298
44.926522
46.566861
49.97588
57.480403
72.827978
96.25198
122.72032
149.44951
174.05288
195.44029
214.34304
230.87175
245.09996
257.23872
267.5412
276.25682
283.63382
289.90695
295.2792
299.91807
303.95906
307.51124
310.6625
313.4839
42.613032
42.857687
43.211524
43.46057
43.720527
44.105535
44.924859
46.562585
49.967248
57.468225
72.815981
96.242401
122.71317
149.44118
174.03961
195.42558
214.32912
230.85944
245.08923
257.22931
267.53278
276.24913
283.62667
289.90019
295.27273
299.9118
303.95295
307.50524
310.65657
313.47802
42.611323
42.855947
43.209927
43.459308
43.719647