/*--------------------------------*- C++ -*----------------------------------*\
| =========                 |                                                 |
| \\      /  F ield         | OpenFOAM: The Open Source CFD Toolbox           |
|  \\    /   O peration     | Version:  v2012                                 |
|   \\  /    A nd           | Website:  www.openfoam.com                      |
|    \\/     M anipulation  |                                                 |
\*---------------------------------------------------------------------------*/
FoamFile
{
    version     2.0;
    format      ascii;
    class       volVectorField;
    location    "150";
    object      U;
}
// * * * * * * * * * * * * * * * * * * * * * * * * * * * * * * * * * * * * * //

dimensions      [0 1 -1 0 0 0 0];


internalField   nonuniform List<vector> 
24000
(
(22.919134 0.0032645683 0)
(23.279309 0.0094940819 0)
(23.376946 0.012006731 0)
(23.389238 0.012989013 0)
(23.411238 0.015102933 0)
(23.470963 0.017446277 0)
(23.607932 0.019649322 0)
(23.805686 0.022227535 0)
(24.051642 0.021146199 0)
(24.383109 0.013865066 0)
(24.829962 -0.0029803364 0)
(25.299495 -0.026359857 0)
(25.653817 -0.049130678 0)
(25.728603 -0.068524334 0)
(25.270267 -0.079313781 0)
(24.187901 -0.083169912 0)
(22.505338 -0.080015526 0)
(20.357773 -0.072405093 0)
(17.950515 -0.062350066 0)
(15.469736 -0.051450349 0)
(13.056064 -0.040814382 0)
(10.80583 -0.031073274 0)
(8.7711528 -0.022605967 0)
(6.9685612 -0.015597631 0)
(5.3939079 -0.01009689 0)
(4.0325325 -0.0060264776 0)
(2.865136 -0.0032106925 0)
(1.8710382 -0.0014192323 0)
(1.0299295 -0.00044088699 0)
(0.32274615 -2.2115546e-05 0)
(22.921576 0.0027159178 0)
(23.283825 0.0077890483 0)
(23.382232 0.0097882279 0)
(23.396074 0.0096730215 0)
(23.421415 0.0087119952 0)
(23.48624 0.0066751966 0)
(23.629018 0.0046782822 0)
(23.833806 0.0035918424 0)
(24.088662 0.00011467402 0)
(24.431259 -0.0045900788 0)
(24.890638 -0.010954849 0)
(25.374007 -0.017532739 0)
(25.74518 -0.023458062 0)
(25.844184 -0.029841921 0)
(25.419086 -0.034686917 0)
(24.378477 -0.03767935 0)
(22.745389 -0.038260873 0)
(20.651996 -0.036871621 0)
(18.302475 -0.033834025 0)
(15.880041 -0.02949818 0)
(13.518646 -0.024361048 0)
(11.305373 -0.019022178 0)
(9.2837033 -0.014023867 0)
(7.4658409 -0.0097228758 0)
(5.8485313 -0.006284833 0)
(4.4220442 -0.003723858 0)
(3.1740886 -0.0019548175 0)
(2.091334 -0.00084045107 0)
(1.1600161 -0.0002476019 0)
(0.36623341 -6.7190492e-06 0)
(22.921455 0.002516107 0)
(23.282982 0.0069228609 0)
(23.380939 0.0083848813 0)
(23.394486 0.0078185684 0)
(23.418492 0.0060319669 0)
(23.480697 0.0033294594 0)
(23.61953 0.0011403641 0)
(23.819361 0.00068383926 0)
(24.06773 -0.00068673459 0)
(24.401633 -0.0011960668 0)
(24.850541 -0.0010649748 0)
(25.323564 -0.00044835992 0)
(25.686539 0.00034889656 0)
(25.780248 0.00076490746 0)
(25.353305 0.0018876863 0)
(24.313583 0.0035633881 0)
(22.680864 0.0055931496 0)
(20.583518 0.0074365032 0)
(18.222897 0.0086044204 0)
(15.782303 0.0088520303 0)
(13.39852 0.0082101523 0)
(11.16393 0.0069557364 0)
(9.1280869 0.0054293169 0)
(7.3068729 0.0039162673 0)
(5.6977408 0.0026057392 0)
(4.2894093 0.0015808779 0)
(3.0668619 0.00084537425 0)
(2.013775 0.00036946132 0)
(1.1136891 0.00011066579 0)
(0.35057476 3.4706043e-06 0)
(22.920907 0.0022278651 0)
(23.282295 0.0060610366 0)
(23.380027 0.0070041602 0)
(23.393477 0.006016513 0)
(23.416938 0.0039001195 0)
(23.478426 0.0010360387 0)
(23.616227 -0.0011701618 0)
(23.814877 -0.0011301163 0)
(24.062173 -0.0012306727 0)
(24.395119 -5.8903646e-05 0)
(24.843677 0.0016281546 0)
(25.317477 0.0030874274 0)
(25.682448 0.0037804751 0)
(25.779018 0.0031201301 0)
(25.355525 0.0026302134 0)
(24.319423 0.0019998904 0)
(22.689493 0.0014851829 0)
(20.593283 0.00097687345 0)
(18.232903 0.00046510402 0)
(15.793022 1.3048928e-05 0)
(13.411497 -0.00030910881 0)
(11.180672 -0.00047180722 0)
(9.1486626 -0.00049462132 0)
(7.3299881 -0.00042703733 0)
(5.7213517 -0.00032031847 0)
(4.3113764 -0.00021110187 0)
(3.0853916 -0.00011981822 0)
(2.0276195 -5.5031046e-05 0)
(1.1221711 -1.7350677e-05 0)
(0.35350893 -9.0669768e-07 0)
(22.920096 0.0019959609 0)
(23.281199 0.0053640688 0)
(23.37867 0.005924198 0)
(23.391841 0.0046927453 0)
(23.414698 0.0025210028 0)
(23.475593 -0.00030130338 0)
(23.612521 -0.0023947077 0)
(23.810185 -0.0019935092 0)
(24.056638 -0.0015407621 0)
(24.388628 0.00021657013 0)
(24.836279 0.0024786804 0)
(25.309492 0.0043892145 0)
(25.674273 0.0052195184 0)
(25.770353 0.0048960231 0)
(25.346111 0.0040938975 0)
(24.309511 0.0034608912 0)
(22.679179 0.0028326615 0)
(20.582667 0.0022842328 0)
(18.22217 0.0017996263 0)
(15.782451 0.0013867075 0)
(13.401184 0.0010453387 0)
(11.170463 0.00076608978 0)
(9.1386838 0.00053961813 0)
(7.3205554 0.00036155784 0)
(5.7128499 0.00022760186 0)
(4.3041542 0.00013217231 0)
(3.0796976 6.8345819e-05 0)
(2.0235803 2.907907e-05 0)
(1.1197978 8.3038075e-06 0)
(0.35271998 2.3960104e-07 0)
(22.919003 0.0017961314 0)
(23.279831 0.0047931847 0)
(23.377098 0.0050667338 0)
(23.39005 0.003684572 0)
(23.412496 0.0015411538 0)
(23.473062 -0.0012248674 0)
(23.609337 -0.0032636077 0)
(23.806336 -0.0026867223 0)
(24.052224 -0.0019970389 0)
(24.383419 -4.4079144e-05 0)
(24.830298 0.0024157484 0)
(25.303107 0.0044883126 0)
(25.667887 0.0053620868 0)
(25.763665 0.0049881576 0)
(25.338821 0.0041509017 0)
(24.301907 0.0034238145 0)
(22.671456 0.0027161704 0)
(20.574995 0.0021008393 0)
(18.214732 0.0015727008 0)
(15.775452 0.0011394431 0)
(13.394834 0.00079787535 0)
(11.164932 0.00053885732 0)
(9.1340639 0.00035021429 0)
(7.3168561 0.00021779642 0)
(5.7100153 0.00012827141 0)
(4.3020871 7.0289068e-05 0)
(3.0782822 3.4544689e-05 0)
(2.0226983 1.4052053e-05 0)
(1.1193389 3.8397015e-06 0)
(0.35258638 6.081914e-08 0)
(22.917699 0.0016287792 0)
(23.278259 0.0043363282 0)
(23.375361 0.0044025066 0)
(23.388137 0.002922467 0)
(23.410286 0.00081529162 0)
(23.47062 -0.0019088371 0)
(23.606297 -0.0039309389 0)
(23.802695 -0.0032786636 0)
(24.048043 -0.002470544 0)
(24.37843 -0.0004511682 0)
(24.824434 0.0020865295 0)
(25.296774 0.0042834517 0)
(25.661444 0.0051986114 0)
(25.756814 0.0048725428 0)
(25.331247 0.0040593918 0)
(24.293902 0.0033569891 0)
(22.663247 0.0026667923 0)
(20.566807 0.0020672829 0)
(18.20678 0.0015549162 0)
(15.767931 0.0011361724 0)
(13.387915 0.00080568269 0)
(11.158743 0.00055304114 0)
(9.1286806 0.00036609521 0)
(7.3123148 0.00023207635 0)
(5.7063191 0.00013925725 0)
(4.2992114 7.7682508e-05 0)
(3.0761782 3.8818259e-05 0)
(2.0212982 1.6015346e-05 0)
(1.1185613 4.462001e-06 0)
(0.3523425 8.4164279e-08 0)
(22.916217 0.0014915597 0)
(23.27653 0.0039728328 0)
(23.373505 0.0038866445 0)
(23.386152 0.0023359493 0)
(23.408083 0.00025243176 0)
(23.468236 -0.002451395 0)
(23.603333 -0.0044774873 0)
(23.799156 -0.0037947731 0)
(24.043971 -0.0029132298 0)
(24.373565 -0.00087554443 0)
(24.818632 0.0016862012 0)
(25.29051 0.0039839472 0)
(25.65508 0.0049311779 0)
(25.750054 0.0046453782 0)
(25.323799 0.0038737976 0)
(24.286063 0.0032047606 0)
(22.65525 0.0025431264 0)
(20.558872 0.001967542 0)
(18.199116 0.0014758534 0)
(15.760725 0.0010749361 0)
(13.381328 0.00075961092 0)
(11.152894 0.00051946224 0)
(9.1236355 0.00034259103 0)
(7.3080966 0.00021638752 0)
(5.7029176 0.00012943253 0)
(4.2965892 7.1937041e-05 0)
(3.0742768 3.5821951e-05 0)
(2.0200436 1.4776608e-05 0)
(1.11787 4.143263e-06 0)
(0.35212757 8.7986413e-08 0)
(22.914595 0.001380074 0)
(23.27468 0.0036840416 0)
(23.371558 0.0034844118 0)
(23.384113 0.0018777156 0)
(23.405876 -0.0001951783 0)
(23.465869 -0.0028938301 0)
(23.600385 -0.0049328804 0)
(23.795639 -0.0042369713 0)
(24.039922 -0.0033011833 0)
(24.368738 -0.0012622242 0)
(24.812806 0.001298907 0)
(25.28423 0.0036825307 0)
(25.648705 0.004656019 0)
(25.743295 0.0044093367 0)
(25.31639 0.003682103 0)
(24.278307 0.0030513361 0)
(22.647374 0.0024229634 0)
(20.55109 0.0018755349 0)
(18.191627 0.0014070728 0)
(15.753707 0.0010248277 0)
(13.374931 0.00072396476 0)
(11.147226 0.00049491289 0)
(9.1187561 0.00032611924 0)
(7.3040223 0.00020572883 0)
(5.6996351 0.00012283216 0)
(4.2940604 6.8169646e-05 0)
(3.0724439 3.3904416e-05 0)
(2.0188346 1.3903808e-05 0)
(1.117204 3.8217243e-06 0)
(0.35192044 4.2374927e-08 0)
(22.91286 0.0012899938 0)
(23.272737 0.0034532619 0)
(23.369538 0.003169051 0)
(23.382029 0.0015163307 0)
(23.403658 -0.00055632319 0)
(23.463504 -0.0032586648 0)
(23.59743 -0.005313604 0)
(23.792119 -0.0046096856 0)
(24.035868 -0.0036312469 0)
(24.363924 -0.0015927328 0)
(24.806942 0.00095910132 0)
(25.277922 0.0034120451 0)
(25.642311 0.0044100232 0)
(25.736535 0.0041958006 0)
(25.309022 0.003510003 0)
(24.270637 0.0029149743 0)
(22.639625 0.0023181415 0)
(20.543459 0.0017971763 0)
(18.1843 0.0013499894 0)
(15.746852 0.00098416054 0)
(13.368693 0.00069561128 0)
(11.141711 0.00047554579 0)
(9.1140176 0.00031327362 0)
(7.3000755 0.00019747837 0)
(5.6964637 0.00011780119 0)
(4.2916236 6.5264057e-05 0)
(3.0706821 3.238407e-05 0)
(2.017675 1.3288758e-05 0)
(1.1165663 3.6968373e-06 0)
(0.35172245 5.0036098e-08 0)
(22.911034 0.0012174005 0)
(23.27072 0.003267268 0)
(23.367461 0.002920469 0)
(23.379908 0.0012305856 0)
(23.401426 -0.00084880437 0)
(23.46113 -0.0035600672 0)
(23.594458 -0.0056311223 0)
(23.788583 -0.004919068 0)
(24.031799 -0.0039072167 0)
(24.359096 -0.0018627196 0)
(24.80106 0.00068289885 0)
(25.271583 0.0031881302 0)
(25.635896 0.0042086049 0)
(25.729772 0.0040186061 0)
(25.30169 0.0033685267 0)
(24.263044 0.002804701 0)
(22.631986 0.0022356036 0)
(20.535958 0.0017379932 0)
(18.177105 0.0013091722 0)
(15.740123 0.00095686063 0)
(13.362569 0.00067779033 0)
(11.136295 0.00046423738 0)
(9.109365 0.00030630544 0)
(7.2962014 0.00019334751 0)
(5.6933524 0.00011545735 0)
(4.2892347 6.408775e-05 0)
(3.0689562 3.1876589e-05 0)
(2.0165396 1.3093206e-05 0)
(1.1159421 3.6400679e-06 0)
(0.35152861 5.352249e-08 0)
(22.909135 0.0011588349 0)
(23.268643 0.0031177668 0)
(23.365339 0.0027236203 0)
(23.377754 0.0010035456 0)
(23.399176 -0.0010846629 0)
(23.458744 -0.0038081878 0)
(23.591464 -0.0058941964 0)
(23.785027 -0.0051718707 0)
(24.027712 -0.0041333107 0)
(24.354247 -0.0020766279 0)
(24.795171 0.00046740957 0)
(25.265223 0.0030096083 0)
(25.629471 0.0040459439 0)
(25.723015 0.0038719287 0)
(25.2944 0.0032512581 0)
(24.255528 0.0027133812 0)
(22.624453 0.0021679882 0)
(20.528576 0.0016904097 0)
(18.170027 0.0012772778 0)
(15.733496 0.00093632348 0)
(13.356527 0.0006649678 0)
(11.130941 0.000456453 0)
(9.1047559 0.00030176691 0)
(7.292357 0.00019080551 0)
(5.6902607 0.00011410606 0)
(4.286858 6.3321053e-05 0)
(3.0672373 3.1465571e-05 0)
(2.015408 1.2951681e-05 0)
(1.1153194 3.6441385e-06 0)
(0.35133506 6.5384223e-08 0)
(22.907176 0.0011113167 0)
(23.266518 0.0029980962 0)
(23.363181 0.002567908 0)
(23.375573 0.00082298746 0)
(23.39691 -0.001273656 0)
(23.456345 -0.0040110315 0)
(23.588452 -0.0061104303 0)
(23.781452 -0.00537719 0)
(24.023609 -0.0043151593 0)
(24.349382 -0.0022416519 0)
(24.78928 0.00030093538 0)
(25.258854 0.002868373 0)
(25.623051 0.0039130331 0)
(25.716278 0.003748779 0)
(25.28716 0.0031523572 0)
(24.248096 0.002635561 0)
(22.617032 0.0021101665 0)
(20.521318 0.0016497849 0)
(18.163072 0.0012502757 0)
(15.726979 0.00091924073 0)
(13.350577 0.00065460148 0)
(11.125656 0.00045051275 0)
(9.1001961 0.00029857127 0)
(7.2885444 0.00018923847 0)
(5.6871875 0.00011340884 0)
(4.2844908 6.3134331e-05 0)
(3.0655223 3.1483729e-05 0)
(2.014277 1.2948298e-05 0)
(1.1146963 3.5846816e-06 0)
(0.35114111 3.7829324e-08 0)
(22.905169 0.0010725907 0)
(23.264353 0.002902235 0)
(23.360991 0.0024454117 0)
(23.373369 0.00068056362 0)
(23.394632 -0.0014235187 0)
(23.453935 -0.0041754597 0)
(23.585423 -0.0062875643 0)
(23.777863 -0.0055439542 0)
(24.019493 -0.004459826 0)
(24.344506 -0.00236683 0)
(24.78339 0.00017248817 0)
(25.252486 0.0027570419 0)
(25.616644 0.0038031336 0)
(25.709569 0.0036424595 0)
(25.279976 0.0030646469 0)
(24.240749 0.0025636596 0)
(22.609719 0.0020540942 0)
(20.514183 0.0016074945 0)
(18.156241 0.0012193143 0)
(15.720577 0.00089717677 0)
(13.344726 0.00063928577 0)
(11.120453 0.00044017293 0)
(9.0956985 0.00029184315 0)
(7.2847768 0.00018500577 0)
(5.6841447 0.00011086163 0)
(4.2821427 6.1611096e-05 0)
(3.0638184 3.0642025e-05 0)
(2.0131519 1.2603472e-05 0)
(1.1140758 3.5334856e-06 0)
(0.35094777 5.0408597e-08 0)
(22.903124 0.0010409228 0)
(23.262156 0.0028254207 0)
(23.358776 0.0023498968 0)
(23.371147 0.00056974424 0)
(23.392343 -0.0015408318 0)
(23.451517 -0.0043080416 0)
(23.582381 -0.0064324721 0)
(23.774262 -0.0056782446 0)
(24.015366 -0.0045734182 0)
(24.339622 -0.0024611962 0)
(24.777507 7.2615666e-05 0)
(25.246125 0.0026683436 0)
(25.610258 0.0037109154 0)
(25.702891 0.0035485969 0)
(25.272849 0.0029845208 0)
(24.233486 0.0024949162 0)
(22.602516 0.0019977376 0)
(20.507175 0.0015624433 0)
(18.149547 0.0011842214 0)
(15.714317 0.00087059904 0)
(13.339013 0.00061984254 0)
(11.115378 0.00042650749 0)
(9.091315 0.00028264958 0)
(7.2811067 0.000179146 0)
(5.6811818 0.00010736545 0)
(4.2798568 5.9773426e-05 0)
(3.0621599 2.9804904e-05 0)
(2.0120571 1.2270257e-05 0)
(1.113472 3.4299832e-06 0)
(0.3507597 5.1741296e-08 0)
(22.901047 0.0010149509 0)
(23.259934 0.0027640312 0)
(23.356541 0.0022764865 0)
(23.36891 0.00048504785 0)
(23.390045 -0.0016316047 0)
(23.449092 -0.004414679 0)
(23.579329 -0.006550777 0)
(23.770649 -0.0057857711 0)
(24.011229 -0.0046623974 0)
(24.334733 -0.0025321625 0)
(24.771629 -5.0423031e-06 0)
(25.239775 0.0025969701 0)
(25.603894 0.003632261 0)
(25.696246 0.0034645102 0)
(25.265775 0.0029103547 0)
(24.2263 0.0024291724 0)
(22.595415 0.0019422684 0)
(20.50029 0.0015168583 0)
(18.14299 0.0011478347 0)
(15.7082 0.00084241223 0)
(13.333445 0.00059874141 0)
(11.110444 0.00041125461 0)
(9.0870639 0.00027203728 0)
(7.2775554 0.00017209311 0)
(5.6783208 0.00010294133 0)
(4.277654 5.7107735e-05 0)
(3.0605646 2.8362081e-05 0)
(2.0110056 1.1666586e-05 0)
(1.1128929 3.2932455e-06 0)
(0.35057955 6.0497707e-08 0)
(22.898944 0.00099348793 0)
(23.25769 0.0027151328 0)
(23.354289 0.0022211676 0)
(23.366662 0.00042180659 0)
(23.387741 -0.0017007712 0)
(23.446662 -0.0045001104 0)
(23.576267 -0.0066470681 0)
(23.767026 -0.0058715964 0)
(24.007082 -0.0047320808 0)
(24.329838 -0.0025844576 0)
(24.765757 -6.3457965e-05 0)
(25.233435 0.0025415966 0)
(25.59755 0.0035676463 0)
(25.689629 0.0033929089 0)
(25.258747 0.0028469837 0)
(24.219183 0.0023731434 0)
(22.588406 0.0018957533 0)
(20.493517 0.0014796947 0)
(18.136561 0.0011193379 0)
(15.702219 0.00082134196 0)
(13.328013 0.00058374234 0)
(11.10564 0.00040099174 0)
(9.0829316 0.00026533324 0)
(7.2741082 0.00016795336 0)
(5.675547 0.00010055665 0)
(4.2755205 5.596459e-05 0)
(3.0590211 2.7913904e-05 0)
(2.0099891 1.1479391e-05 0)
(1.1123336 3.1686291e-06 0)
(0.35040563 2.6808235e-08 0)
(22.896821 0.00097561597 0)
(23.25543 0.0026763822 0)
(23.352024 0.0021806297 0)
(23.364403 0.00037626857 0)
(23.385432 -0.0017518453 0)
(23.444226 -0.0045678709 0)
(23.573197 -0.006725324 0)
(23.763391 -0.0059395282 0)
(24.002925 -0.0047857643 0)
(24.324935 -0.0026217953 0)
(24.759889 -0.00010611934 0)
(25.227105 0.0024999453 0)
(25.591226 0.0035151082 0)
(25.683038 0.003332017 0)
(25.251761 0.0027926952 0)
(24.212126 0.002324756 0)
(22.581475 0.0018554633 0)
(20.486837 0.0014472686 0)
(18.130231 0.0010941045 0)
(15.696339 0.00080229469 0)
(13.32268 0.00056976411 0)
(11.100927 0.00039102793 0)
(9.0788809 0.00025842409 0)
(7.2707313 0.00016329643 0)
(5.6728314 9.7542772e-05 0)
(4.2734328 5.4024836e-05 0)
(3.0575113 2.6778322e-05 0)
(2.0089951 1.0980179e-05 0)
(1.1117867 3.0715758e-06 0)
(0.35023564 3.7342712e-08 0)
(22.89468 0.00096063636 0)
(23.253157 0.0026459364 0)
(23.349748 0.0021522408 0)
(23.362138 0.00034540464 0)
(23.38312 -0.0017876674 0)
(23.441786 -0.0046207626 0)
(23.570118 -0.0067886701 0)
(23.759746 -0.0059925804 0)
(23.998758 -0.0048260744 0)
(24.320025 -0.0026465278 0)
(24.754024 -0.00013523146 0)
(25.220787 0.002469699 0)
(25.584923 0.0034728063 0)
(25.676473 0.0032808146 0)
(25.244813 0.0027470321 0)
(24.205125 0.0022840364 0)
(22.574617 0.0018218488 0)
(20.480241 0.0014206147 0)
(18.123993 0.001073878 0)
(15.690552 0.00078750136 0)
(13.317436 0.00055937425 0)
(11.096298 0.00038405676 0)
(9.0749042 0.00025400105 0)
(7.2674177 0.00016069541 0)
(5.6701678 9.6162577e-05 0)
(4.2713858 5.3486208e-05 0)
(3.0560313 2.6657095e-05 0)
(2.0080211 1.0967583e-05 0)
(1.1112509 3.062044e-06 0)
(0.3500691 4.21291e-08 0)
(22.892527 0.00094809904 0)
(23.250873 0.0026223462 0)
(23.347463 0.0021338692 0)
(23.359867 0.00032683802 0)
(23.380805 -0.0018107526 0)
(23.439343 -0.0046612315 0)
(23.567032 -0.0068396829 0)
(23.756089 -0.0060337083 0)
(23.994579 -0.0048555325 0)
(24.315108 -0.0026603922 0)
(24.748162 -0.00015241461 0)
(25.214481 0.0024491401 0)
(25.578642 0.0034390329 0)
(25.669934 0.003237329 0)
(25.237904 0.0027077157 0)
(24.198174 0.0022484716 0)
(22.567823 0.001792237 0)
(20.47372 0.0013968415 0)
(18.117834 0.0010555225 0)
(15.684844 0.00077373703 0)
(13.312266 0.00054933205 0)
(11.091735 0.00037695309 0)
(9.070985 0.00024909864 0)
(7.2641525 0.00015739859 0)
(5.6675434 9.4017592e-05 0)
(4.2693692 5.2045586e-05 0)
(3.0545735 2.5783652e-05 0)
(2.0070617 1.0581038e-05 0)
(1.1107232 2.9885925e-06 0)
(0.34990509 5.0747754e-08 0)
(22.890362 0.00093759193 0)
(23.24858 0.0026044766 0)
(23.345172 0.0021238676 0)
(23.357593 0.00031867221 0)
(23.378488 -0.0018230746 0)
(23.436896 -0.0046911295 0)
(23.563937 -0.006880215 0)
(23.75242 -0.0060647691 0)
(23.990388 -0.0048755658 0)
(24.310181 -0.0026658166 0)
(24.742303 -0.00016045826 0)
(25.208188 0.0024370446 0)
(25.572383 0.0034129216 0)
(25.663423 0.00320119 0)
(25.231032 0.0026750647 0)
(24.191273 0.0022191358 0)
(22.561091 0.001768338 0)
(20.467271 0.0013783221 0)
(18.111752 0.0010420256 0)
(15.679213 0.00076437785 0)
(13.307169 0.00054322924 0)
(11.087237 0.00037323752 0)
(9.0671205 0.00024708252 0)
(7.2609311 0.00015649905 0)
(5.6649525 9.3778857e-05 0)
(4.2673771 5.2262058e-05 0)
(3.0531328 2.6110057e-05 0)
(2.0061132 1.0757961e-05 0)
(1.1102013 2.9814619e-06 0)
(0.34974282 3.0068011e-08 0)
(22.888188 0.00092869994 0)
(23.246281 0.0025913595 0)
(23.342876 0.002120919 0)
(23.355315 0.00031935518 0)
(23.376169 -0.001826105 0)
(23.434447 -0.0047119115 0)
(23.560836 -0.0069118037 0)
(23.748739 -0.0060873792 0)
(23.986184 -0.0048877373 0)
(24.305245 -0.0026648453 0)
(24.736447 -0.00016273696 0)
(25.201909 0.0024297077 0)
(25.566148 0.0033906832 0)
(25.656938 0.0031678368 0)
(25.224195 0.0026439288 0)
(24.184416 0.0021901204 0)
(22.554413 0.0017435073 0)
(20.460882 0.0013577812 0)
(18.105734 0.0010256407 0)
(15.673647 0.00075169412 0)
(13.302134 0.00053364514 0)
(11.082795 0.00036618301 0)
(9.0633066 0.0002419827 0)
(7.2577532 0.00015288508 0)
(5.6623975 9.129188e-05 0)
(4.2654132 5.050751e-05 0)
(3.0517126 2.5000081e-05 0)
(2.0051784 1.0243353e-05 0)
(1.109687 2.8762535e-06 0)
(0.34958297 3.7839991e-08 0)
(22.886007 0.00092111727 0)
(23.243977 0.0025822193 0)
(23.340576 0.0021238962 0)
(23.353035 0.00032763723 0)
(23.373851 -0.001821 0)
(23.431995 -0.0047248157 0)
(23.557726 -0.006935912 0)
(23.745043 -0.0061034861 0)
(23.981965 -0.0048938725 0)
(24.300299 -0.0026579408 0)
(24.730592 -0.00015907656 0)
(25.195643 0.0024272317 0)
(25.559934 0.0033730952 0)
(25.650477 0.003138686 0)
(25.217389 0.0026166614 0)
(24.177599 0.002164717 0)
(22.547784 0.0017219585 0)
(20.45455 0.0013402579 0)
(18.099778 0.0010120867 0)
(15.668143 0.00074165009 0)
(13.29716 0.00052655455 0)
(11.078411 0.00036144205 0)
(9.059544 0.00023904558 0)
(7.254619 0.00015125804 0)
(5.6598781 9.0539877e-05 0)
(4.2634769 5.0374047e-05 0)
(3.0503126 2.5114483e-05 0)
(2.0042569 1.0338235e-05 0)
(1.1091801 2.8951927e-06 0)
(0.3494254 4.2007622e-08 0)
(22.883821 0.00091475094 0)
(23.241669 0.002576572 0)
(23.338273 0.0021319161 0)
(23.350754 0.00034252766 0)
(23.371532 -0.0018087727 0)
(23.429541 -0.0047307207 0)
(23.554608 -0.0069533183 0)
(23.741334 -0.0061137603 0)
(23.97773 -0.0048946579 0)
(24.295341 -0.0026460553 0)
(24.724737 -0.0001507011 0)
(25.18939 0.0024274926 0)
(25.553742 0.0033576187 0)
(25.644039 0.0031114748 0)
(25.210612 0.0025908181 0)
(24.170818 0.0021402782 0)
(22.541198 0.0017008568 0)
(20.448268 0.0013226556 0)
(18.093876 0.00099796999 0)
(15.662695 0.0007306679 0)
(13.292239 0.0005182365 0)
(11.074076 0.00035533448 0)
(9.0558251 0.00023465719 0)
(7.2515228 0.0001481903 0)
(5.6573906 8.8463717e-05 0)
(4.2615659 4.8923555e-05 0)
(3.0489314 2.4210236e-05 0)
(2.0033481 9.9256744e-06 0)
(1.1086803 2.8096387e-06 0)
(0.34927004 4.8829826e-08 0)
(22.88163 0.00090950541 0)
(23.239358 0.0025740454 0)
(23.335968 0.0021443704 0)
(23.348472 0.00036322786 0)
(23.369213 -0.0017903475 0)
(23.427084 -0.0047303208 0)
(23.551481 -0.0069647418 0)
(23.737608 -0.0061189697 0)
(23.973478 -0.0048908765 0)
(24.29037 -0.0026305119 0)
(24.718882 -0.00013872506 0)
(25.18315 0.0024304793 0)
(25.547571 0.0033450621 0)
(25.637625 0.0030877496 0)
(25.203865 0.0025687828 0)
(24.164074 0.0021200611 0)
(22.534658 0.0016842709 0)
(20.442039 0.0013097772 0)
(18.088032 0.0009887027 0)
(15.657306 0.0007244168 0)
(13.287377 0.00051439062 0)
(11.069794 0.00035320555 0)
(9.0521522 0.00023376121 0)
(7.2484644 0.00014807116 0)
(5.6549327 8.8759196e-05 0)
(4.2596773 4.9509091e-05 0)
(3.0475661 2.4766047e-05 0)
(2.0024496 1.0217475e-05 0)
(1.1081861 2.8320871e-06 0)
(0.34911641 2.7277736e-08 0)
(22.879436 0.00090513983 0)
(23.237046 0.0025742235 0)
(23.333662 0.0021608476 0)
(23.34619 0.00038913828 0)
(23.366896 -0.0017664036 0)
(23.424625 -0.0047241736 0)
(23.548344 -0.0069709949 0)
(23.733865 -0.0061201833 0)
(23.969207 -0.0048834484 0)
(24.285385 -0.0026122467 0)
(24.713025 -0.0001239518 0)
(25.176921 0.0024357884 0)
(25.541421 0.0033341294 0)
(25.631233 0.0030646614 0)
(25.197144 0.002546484 0)
(24.157362 0.0020987585 0)
(22.528153 0.0016656531 0)
(20.43585 0.0012939944 0)
(18.082231 0.0009757614 0)
(15.651962 0.00071413518 0)
(13.282557 0.00050639465 0)
(11.065553 0.00034715724 0)
(9.0485162 0.00022924171 0)
(7.2454382 0.00014474547 0)
(5.6525016 8.6376205e-05 0)
(4.2578098 4.7741398e-05 0)
(3.0462163 2.3605235e-05 0)
(2.0015614 9.6639524e-06 0)
(1.1076976 2.7139393e-06 0)
(0.3489646 3.38633e-08 0)
(22.87724 0.00090148437 0)
(23.234733 0.0025767619 0)
(23.331355 0.0021809727 0)
(23.343908 0.00041985081 0)
(23.364578 -0.0017372993 0)
(23.422163 -0.0047125729 0)
(23.545197 -0.0069723482 0)
(23.730104 -0.0061176744 0)
(23.964915 -0.0048727976 0)
(24.280384 -0.0025915438 0)
(24.707166 -0.00010671969 0)
(25.170704 0.002442507 0)
(25.53529 0.003324541 0)
(25.624862 0.0030434285 0)
(25.190449 0.0025261903 0)
(24.150678 0.0020797309 0)
(22.521682 0.0016494308 0)
(20.4297 0.001280645 0)
(18.076473 0.00096526682 0)
(15.646663 0.00070625152 0)
(13.277784 0.0005007832 0)
(11.061356 0.0003433965 0)
(9.0449197 0.00022695115 0)
(7.2424458 0.00014355191 0)
(5.6500981 8.5920004e-05 0)
(4.2559636 4.7820232e-05 0)
(3.044882 2.3855422e-05 0)
(2.0006835 9.8247522e-06 0)
(1.1072148 2.7519755e-06 0)
(0.3488145 3.8305088e-08 0)
(22.875043 0.00089857132 0)
(23.23242 0.0025815636 0)
(23.329048 0.0022044397 0)
(23.341627 0.00045507388 0)
(23.362262 -0.0017032983 0)
(23.419698 -0.0046959504 0)
(23.54204 -0.0069692977 0)
(23.726324 -0.0061121179 0)
(23.960602 -0.0048596195 0)
(24.275365 -0.0025682921 0)
(24.701303 -8.6824997e-05 0)
(25.164498 0.0024502909 0)
(25.529178 0.0033158604 0)
(25.618511 0.0030233264 0)
(25.183776 0.0025067873 0)
(24.144021 0.002061367 0)
(22.515242 0.0016334646 0)
(20.423582 0.00126703 0)
(18.070751 0.0009539658 0)
(15.641401 0.00069711428 0)
(13.273048 0.00049356657 0)
(11.057195 0.00033786566 0)
(9.0413588 0.00022278695 0)
(7.2394861 0.0001405029 0)
(5.6477233 8.3763378e-05 0)
(4.254141 4.6243304e-05 0)
(3.0435657 2.2839488e-05 0)
(1.9998179 9.3478717e-06 0)
(1.1067388 2.6463969e-06 0)
(0.34866659 4.344607e-08 0)
(22.872847 0.00089642165 0)
(23.230108 0.0025885584 0)
(23.326741 0.0022310003 0)
(23.339347 0.00049459385 0)
(23.359946 -0.0016646296 0)
(23.41723 -0.0046746825 0)
(23.538871 -0.0069622241 0)
(23.722523 -0.0061038356 0)
(23.956265 -0.0048439498 0)
(24.270328 -0.0025424096 0)
(24.695436 -6.3887836e-05 0)
(25.158302 0.0024605835 0)
(25.523086 0.003309829 0)
(25.61218 0.0030061704 0)
(25.177128 0.0024910198 0)
(24.137391 0.0020473918 0)
(22.508831 0.0016224854 0)
(20.4175 0.0012588237 0)
(18.065066 0.00094834826 0)
(15.63618 0.00069357451 0)
(13.268353 0.00049166234 0)
(11.053073 0.00033707252 0)
(9.0378318 0.00022278831 0)
(7.2365553 0.00014098479 0)
(5.6453718 8.4466071e-05 0)
(4.2523365 4.7115847e-05 0)
(3.0422627 2.3581535e-05 0)
(1.998961 9.7394854e-06 0)
(1.1062678 2.7076894e-06 0)
(0.3485202 2.860227e-08 0)
(22.870651 0.00089500767 0)
(23.227798 0.0025976191 0)
(23.324436 0.0022604869 0)
(23.337069 0.00053825415 0)
(23.357631 -0.0016214846 0)
(23.414758 -0.0046488617 0)
(23.53569 -0.006951023 0)
(23.7187 -0.0060924679 0)
(23.951903 -0.0048256924 0)
(24.26527 -0.0025148855 0)
(24.689564 -3.9429519e-05 0)
(25.152117 0.002471372 0)
(25.517012 0.0033035262 0)
(25.60587 0.0029883921 0)
(25.170504 0.0024741202 0)
(24.130786 0.0020318798 0)
(22.502447 0.0016093765 0)
(20.411442 0.001247829 0)
(18.059407 0.00093926887 0)
(15.630983 0.00068625881 0)
(13.263682 0.00048582878 0)
(11.048975 0.00033251943 0)
(9.0343283 0.00021922342 0)
(7.2336465 0.0001382144 0)
(5.6430401 8.2370042e-05 0)
(4.2505486 4.5462512e-05 0)
(3.0409724 2.2450017e-05 0)
(1.9981131 9.185652e-06 0)
(1.1058018 2.5856978e-06 0)
(0.34837543 3.4038573e-08 0)
(22.868456 0.00089427354 0)
(23.22549 0.0026085898 0)
(23.322132 0.0022928405 0)
(23.334793 0.00058587095 0)
(23.355316 -0.0015741699 0)
(23.412281 -0.0046186781 0)
(23.532497 -0.0069358117 0)
(23.714854 -0.0060780663 0)
(23.947515 -0.00480463 0)
(24.260192 -0.0024852713 0)
(24.683686 -1.3080074e-05 0)
(25.145942 0.0024830626 0)
(25.510958 0.0032982922 0)
(25.59958 0.0029729338 0)
(25.163902 0.002459982 0)
(24.124206 0.0020196621 0)
(22.496087 0.0015998977 0)
(20.405411 0.0012405971 0)
(18.053774 0.00093393283 0)
(15.625813 0.00068252673 0)
(13.259037 0.00048343458 0)
(11.0449 0.00033115235 0)
(9.0308443 0.00021863886 0)
(7.2307532 0.00013817828 0)
(5.6407201 8.2657046e-05 0)
(4.2487691 4.5992137e-05 0)
(3.0396878 2.2947562e-05 0)
(1.9972686 9.4577454e-06 0)
(1.1053375 2.654346e-06 0)
(0.34823112 3.7813376e-08 0)
(22.866264 0.00089421575 0)
(23.223185 0.0026213316 0)
(23.31983 0.0023279768 0)
(23.332518 0.00063727727 0)
(23.353002 -0.0015228962 0)
(23.409799 -0.0045843779 0)
(23.529291 -0.0069169329 0)
(23.710984 -0.0060610641 0)
(23.9431 -0.0047811813 0)
(24.255091 -0.0024537867 0)
(24.677802 1.5369397e-05 0)
(25.139777 0.0024965727 0)
(25.504922 0.0032944616 0)
(25.59331 0.0029592098 0)
(25.157323 0.002447282 0)
(24.117649 0.002008455 0)
(22.48975 0.001590914 0)
(20.3994 0.0012333014 0)
(18.04816 0.00092798386 0)
(15.620661 0.0006776854 0)
(13.254408 0.00047950416 0)
(11.040842 0.00032803792 0)
(9.0273763 0.00021616385 0)
(7.2278754 0.00013624013 0)
(5.6384141 8.1183434e-05 0)
(4.2470015 4.4809694e-05 0)
(3.0384125 2.2134215e-05 0)
(1.9964305 9.0615153e-06 0)
(1.1048769 2.5676342e-06 0)
(0.34808796 4.3000707e-08 0)
(22.864074 0.00089485831 0)
(23.220883 0.0026357659 0)
(23.317531 0.0023656272 0)
(23.330246 0.00069224055 0)
(23.350687 -0.0014675963 0)
(23.407311 -0.0045460035 0)
(23.526071 -0.0068943113 0)
(23.707089 -0.0060413022 0)
(23.938655 -0.0047553981 0)
(24.249966 -0.0024203874 0)
(24.67191 4.5642037e-05 0)
(25.133623 0.0025119518 0)
(25.498905 0.0032928471 0)
(25.587061 0.0029483173 0)
(25.150769 0.0024384018 0)
(24.111118 0.0020020089 0)
(22.483438 0.0015875754 0)
(20.393413 0.0012323047 0)
(18.042569 0.00092871898 0)
(15.615531 0.0006794513 0)
(13.2498 0.00048185257 0)
(11.0368 0.00033051472 0)
(9.0239221 0.00021860964 0)
(7.2250077 0.00013847742 0)
(5.6361152 8.3084642e-05 0)
(4.2452385 4.6467513e-05 0)
(3.0371401 2.3343373e-05 0)
(1.9955941 9.6780695e-06 0)
(1.104417 2.6897777e-06 0)
(0.347945 2.7835812e-08 0)
(22.861889 0.00089618465 0)
(23.218584 0.0026517801 0)
(23.315234 0.0024055094 0)
(23.327976 0.00075059085 0)
(23.348373 -0.0014082151 0)
(23.404818 -0.0045036669 0)
(23.522838 -0.0068678955 0)
(23.703168 -0.0060189068 0)
(23.934181 -0.0047275997 0)
(24.244816 -0.0023851874 0)
(24.66601 7.6763989e-05 0)
(25.127478 0.0025268664 0)
(25.492908 0.0032902063 0)
(25.580833 0.0029357524 0)
(25.144238 0.0024271974 0)
(24.104609 0.0019925471 0)
(22.477145 0.0015804572 0)
(20.38744 0.0012268997 0)
(18.036987 0.000924511 0)
(15.610405 0.00067605533 0)
(13.245194 0.00047896269 0)
(11.032761 0.00032804246 0)
(9.0204698 0.0002164074 0)
(7.2221423 0.00013650575 0)
(5.6338188 8.1386654e-05 0)
(4.243478 4.4935904e-05 0)
(3.0358696 2.2202599e-05 0)
(1.9947589 9.094307e-06 0)
(1.1039579 2.5603316e-06 0)
(0.34780225 3.3508978e-08 0)
(22.859707 0.000898129 0)
(23.21629 0.0026692062 0)
(23.31294 0.0024473764 0)
(23.325709 0.00081211087 0)
(23.346058 -0.0013448357 0)
(23.40232 -0.0044574378 0)
(23.51959 -0.0068377641 0)
(23.69922 -0.0059938931 0)
(23.929675 -0.0046978897 0)
(24.239641 -0.002348403 0)
(24.660102 0.00010960882 0)
(25.121344 0.002542959 0)
(25.486929 0.0032884069 0)
(25.574625 0.00292443 0)
(25.13773 0.0024175032 0)
(24.098124 0.0019850292 0)
(22.470873 0.0015757131 0)
(20.381484 0.0012242243 0)
(18.031419 0.00092337131 0)
(15.60529 0.00067589772 0)
(13.240595 0.00047941545 0)
(11.028724 0.00032884281 0)
(9.0170175 0.00021742167 0)
(7.2192746 0.00013761853 0)
(5.6315186 8.2467934e-05 0)
(4.241713 4.6017307e-05 0)
(3.034595 2.3040737e-05 0)
(1.9939205 9.5246649e-06 0)
(1.1034967 2.6736677e-06 0)
(0.34765875 3.8345761e-08 0)
(22.85753 0.00090062203 0)
(23.214001 0.0026878612 0)
(23.310649 0.0024910315 0)
(23.323446 0.00087661312 0)
(23.343744 -0.0012775822 0)
(23.399815 -0.0044074464 0)
(23.516327 -0.0068039601 0)
(23.695245 -0.005966117 0)
(23.925137 -0.0046664628 0)
(24.23444 -0.0023107062 0)
(24.654186 0.00014349639 0)
(25.115219 0.0025594095 0)