/*--------------------------------*- C++ -*----------------------------------*\
| =========                 |                                                 |
| \\      /  F ield         | OpenFOAM: The Open Source CFD Toolbox           |
|  \\    /   O peration     | Version:  v2012                                 |
|   \\  /    A nd           | Website:  www.openfoam.com                      |
|    \\/     M anipulation  |                                                 |
\*---------------------------------------------------------------------------*/
FoamFile
{
    version     2.0;
    format      ascii;
    class       volScalarField;
    location    "200";
    object      alphat;
}
// * * * * * * * * * * * * * * * * * * * * * * * * * * * * * * * * * * * * * //

dimensions      [1 -1 -1 0 0 0 0];


internalField   nonuniform List<scalar> 
24000
(
0.0009913691
0.00024914062
0.00049239326
0.00056762962
0.00026932135
0.00013355258
7.3992123e-05
4.1384347e-05
2.2109728e-05
1.2511798e-05
8.0687877e-06
6.1682826e-06
3.4638429e-06
2.2535802e-06
1.6991061e-06
1.1566264e-06
7.4866833e-07
4.5370034e-07
2.4376789e-07
1.0242081e-07
3.6668026e-08
1.1426977e-08
3.1500038e-09
7.684971e-10
1.6241876e-10
2.8414308e-11
3.9695006e-12
6.7133326e-13
4.3725121e-13
4.6031568e-13
0.00099200595
0.0002471962
0.00047214847
0.0005215619
0.00025203652
0.00012769013
7.051026e-05
3.9583602e-05
2.16013e-05
1.2294129e-05
7.9484216e-06
6.0141442e-06
3.4889815e-06
2.252805e-06
1.7147241e-06
1.172972e-06
7.6376293e-07
4.6544568e-07
2.4976799e-07
1.0508111e-07
3.7623341e-08
1.1723681e-08
3.23272e-09
7.8914282e-10
1.6693586e-10
2.9287597e-11
4.1679431e-12
7.8212514e-13
5.5012008e-13
5.7889147e-13
0.00099260839
0.00024729741
0.00048153111
0.00054915607
0.00026618614
0.00013340351
7.2848711e-05
4.0888526e-05
2.2121528e-05
1.2454822e-05
7.9947622e-06
6.0025294e-06
3.5026411e-06
2.2559985e-06
1.7210723e-06
1.1773802e-06
7.6737208e-07
4.6850362e-07
2.5494801e-07
1.0791192e-07
3.8797775e-08
1.2113845e-08
3.3418299e-09
8.155493e-10
1.7241423e-10
3.0195762e-11
4.2502528e-12
7.5096417e-13
5.0591234e-13
5.3228693e-13
0.00099320703
0.00024741886
0.00048518945
0.0005592177
0.00027057744
0.00013511533
7.3462837e-05
4.1047561e-05
2.2118973e-05
1.242236e-05
7.9662883e-06
5.9683824e-06
3.5017789e-06
2.2555003e-06
1.7253161e-06
1.1787414e-06
7.6731803e-07
4.6777551e-07
2.5352534e-07
1.0699969e-07
3.8377288e-08
1.1963794e-08
3.2977543e-09
8.045264e-10
1.7007557e-10
2.9797102e-11
4.2063852e-12
7.5570528e-13
5.1550753e-13
5.42451e-13
0.00099380274
0.00024788257
0.00048970686
0.00056965936
0.00027438977
0.00013645294
7.3895806e-05
4.1143929e-05
2.2120157e-05
1.2411193e-05
7.958577e-06
5.9625592e-06
3.4998091e-06
2.2550221e-06
1.7240176e-06
1.1779158e-06
7.669283e-07
4.676492e-07
2.5365686e-07
1.0709688e-07
3.8422234e-08
1.1979161e-08
3.3020214e-09
8.0553768e-10
1.702802e-10
2.9829703e-11
4.2085e-12
7.5363857e-13
5.128675e-13
5.3965835e-13
0.00099439562
0.00024822953
0.00049312019
0.00057671295
0.00027673551
0.0001372643
7.4140091e-05
4.11882e-05
2.2116083e-05
1.2398864e-05
7.9498579e-06
5.957381e-06
3.4966435e-06
2.2541713e-06
1.7234257e-06
1.1774159e-06
7.6651958e-07
4.6733035e-07
2.5336928e-07
1.0694384e-07
3.8358153e-08
1.1957319e-08
3.2957369e-09
8.0398094e-10
1.6995105e-10
2.9772795e-11
4.201055e-12
7.5285581e-13
5.126124e-13
5.3939652e-13
0.00099498543
0.00024861064
0.00049571141
0.00058177396
0.00027843288
0.00013789218
7.4341452e-05
4.1229976e-05
2.2115497e-05
1.2389241e-05
7.9433301e-06
5.954875e-06
3.4933466e-06
2.2533171e-06
1.7224615e-06
1.1767641e-06
7.6605506e-07
4.6700943e-07
2.5313244e-07
1.0682701e-07
3.8311731e-08
1.1941977e-08
3.2913927e-09
8.0291279e-10
1.6972568e-10
2.973353e-11
4.1955258e-12
7.5183849e-13
5.1190331e-13
5.3865036e-13
0.00099557207
0.00024895078
0.00049759845
0.00058545787
0.00027974024
0.00013843063
7.4528529e-05
4.1272238e-05
2.211565e-05
1.2380346e-05
7.9373059e-06
5.9520704e-06
3.4900936e-06
2.2524671e-06
1.7215344e-06
1.1761329e-06
7.6559744e-07
4.6668689e-07
2.5288235e-07
1.0670197e-07
3.8261623e-08
1.1925347e-08
3.286677e-09
8.017533e-10
1.6948124e-10
2.9691085e-11
4.1896798e-12
7.5089348e-13
5.1130859e-13
5.3802561e-13
0.00099615538
0.00024922826
0.00049917095
0.000588296
0.00028084501
0.00013893322
7.4713402e-05
4.1315111e-05
2.2116318e-05
1.2372005e-05
7.9316655e-06
5.9496807e-06
3.4869793e-06
2.2516495e-06
1.7206196e-06
1.1755108e-06
7.6514746e-07
4.6637112e-07
2.5264026e-07
1.065815e-07
3.8213514e-08
1.1909413e-08
3.2821635e-09
8.0064414e-10
1.6924747e-10
2.9650489e-11
4.1840761e-12
7.4997395e-13
5.1072195e-13
5.3740887e-13
0.00099673511
0.00024944596
0.00050046137
0.0005905907
0.00028184001
0.00013942003
7.4898073e-05
4.1358272e-05
2.211716e-05
1.2363941e-05
7.9262348e-06
5.9473389e-06
3.4840151e-06
2.2508667e-06
1.7197428e-06
1.1749084e-06
7.6470924e-07
4.6606275e-07
2.5240427e-07
1.0646422e-07
3.8166715e-08
1.189392e-08
3.2777751e-09
7.9956548e-10
1.6902006e-10
2.9610986e-11
4.1786267e-12
7.4908538e-13
5.1015839e-13
5.3681652e-13
0.00099731108
0.00024961698
0.00050101476
0.00059253118
0.00028276945
0.00013989984
7.5083356e-05
4.1401585e-05
2.2118082e-05
1.2356048e-05
7.920949e-06
5.9450061e-06
3.481193e-06
2.2501188e-06
1.7189034e-06
1.1743246e-06
7.6428172e-07
4.6576085e-07
2.52174e-07
1.0634991e-07
3.8121148e-08
1.1878842e-08
3.2735044e-09
7.9851563e-10
1.6879868e-10
2.957252e-11
4.1733172e-12
7.4821758e-13
5.0960715e-13
5.3623732e-13
0.00099788309
0.00024975451
0.00050149586
0.00059423492
0.00028365803
0.00014037671
7.5269617e-05
4.1445005e-05
2.2119028e-05
1.2348258e-05
7.9157616e-06
5.9426997e-06
3.4784983e-06
2.2494035e-06
1.7181003e-06
1.1737588e-06
7.6386422e-07
4.6546453e-07
2.5194821e-07
1.0623785e-07
3.807649e-08
1.1864064e-08
3.269318e-09
7.9748599e-10
1.6858144e-10
2.9534749e-11
4.1680994e-12
7.4736323e-13
5.0906413e-13
5.3566706e-13
0.00099845098
0.00024986854
0.00050190843
0.00059577668
0.00028452115
0.00014085277
7.5457117e-05
4.1488579e-05
2.211997e-05
1.2340546e-05
7.9106537e-06
5.9403951e-06
3.4759158e-06
2.2487189e-06
1.7173301e-06
1.1732098e-06
7.6345623e-07
4.6517346e-07
2.517262e-07
1.0612757e-07
3.8032525e-08
1.1849513e-08
3.2651943e-09
7.9647141e-10
1.6836728e-10
2.9497502e-11
4.1629537e-12
7.4652228e-13
5.0853088e-13
5.3510734e-13
0.00099901456
0.00024996718
0.00050226268
0.00059720561
0.00028536772
0.00014132915
7.5646068e-05
4.1532403e-05
2.2120902e-05
1.2332901e-05
7.9056214e-06
5.9380792e-06
3.4734337e-06
2.2480638e-06
1.716591e-06
1.1726775e-06
7.6305799e-07
4.6488795e-07
2.5150796e-07
1.0601903e-07
3.7989225e-08
1.1835173e-08
3.2611278e-09
7.9547005e-10
1.6815573e-10
2.9460681e-11
4.1578662e-12
7.4569447e-13
5.0800843e-13
5.3455917e-13
0.00099957372
0.00025005646
0.00050257209
0.00059855595
0.00028620394
0.00014180678
7.5836708e-05
4.1576589e-05
2.2121837e-05
1.2325321e-05
7.9006655e-06
5.9357679e-06
3.471042e-06
2.2474379e-06
1.7158808e-06
1.1721611e-06
7.6266952e-07
4.6460828e-07
2.5129354e-07
1.0591227e-07
3.7946603e-08
1.1821052e-08
3.2571215e-09
7.944832e-10
1.6794718e-10
2.9424374e-11
4.152854e-12
7.4488487e-13
5.0750093e-13
5.3402676e-13
0.0010001283
0.00025014053
0.00050284798
0.00059985063
0.00028703473
0.00014228656
7.6029325e-05
4.1621261e-05
2.212279e-05
1.2317804e-05
7.8957867e-06
5.9334768e-06
3.4687328e-06
2.2468406e-06
1.7151978e-06
1.1716604e-06
7.6229079e-07
4.643346e-07
2.5108312e-07
1.0580739e-07
3.790471e-08
1.1807166e-08
3.2531809e-09
7.9351215e-10
1.677419e-10
2.9388626e-11
4.1479223e-12
7.4409316e-13
5.070074e-13
5.3350898e-13
0.0010006782
0.00025022227
0.00050309924
0.0006011057
0.00028786339
0.00014276896
7.6225577e-05
4.1666506e-05
2.2123779e-05
1.2310353e-05
7.8909859e-06
5.9312145e-06
3.4664991e-06
2.2462715e-06
1.7145403e-06
1.1711747e-06
7.6192159e-07
4.6406685e-07
2.5087662e-07
1.0570436e-07
3.7863531e-08
1.1793514e-08
3.249306e-09
7.925573e-10
1.6754005e-10
2.9353482e-11
4.1430775e-12
7.4331885e-13
5.0652656e-13
5.3300443e-13
0.0010012233
0.00025030358
0.00050333311
0.00060233366
0.00028869181
0.00014325404
7.6422543e-05
4.1712356e-05
2.2124821e-05
1.2302969e-05
7.8862605e-06
5.928985e-06
3.464335e-06
2.2457302e-06
1.7139079e-06
1.1707038e-06
7.6156167e-07
4.6380474e-07
2.5067382e-07
1.0560304e-07
3.7823006e-08
1.178007e-08
3.245488e-09
7.9161591e-10
1.6734094e-10
2.93188e-11
4.1382964e-12
7.4255645e-13
5.0605418e-13
5.3250873e-13
0.0010017635
0.00025038569
0.00050355492
0.00060354415
0.00028952134
0.0001437418
7.6620647e-05
4.1758828e-05
2.2125922e-05
1.2295649e-05
7.8816077e-06
5.9267899e-06
3.4622354e-06
2.245216e-06
1.7132998e-06
1.1702475e-06
7.612108e-07
4.6354815e-07
2.5047449e-07
1.0550333e-07
3.7783098e-08
1.1766825e-08
3.2417258e-09
7.9068813e-10
1.6714468e-10
2.9284614e-11
4.1335846e-12
7.4180648e-13
5.0559027e-13
5.3202192e-13
0.0010022987
0.00025046942
0.00050376899
0.00060474394
0.00029035329
0.00014423227
7.6820604e-05
4.1805962e-05
2.2127089e-05
1.228839e-05
7.8770254e-06
5.9246332e-06
3.4601961e-06
2.2447287e-06
1.7127151e-06
1.1698053e-06
7.6086884e-07
4.6329693e-07
2.5027853e-07
1.0540515e-07
3.7743773e-08
1.1753768e-08
3.2380152e-09
7.8977275e-10
1.6695098e-10
2.9250862e-11
4.1289313e-12
7.410657e-13
5.0513207e-13
5.315411e-13
0.0010028288
0.00025055531
0.00050397829
0.00060593727
0.00029118869
0.00014472534
7.7022649e-05
4.1853821e-05
2.2128336e-05
1.2281191e-05
7.8725105e-06
5.9225168e-06
3.4582135e-06
2.2442678e-06
1.7121529e-06
1.1693772e-06
7.6053574e-07
4.6305112e-07
2.5008582e-07
1.0530846e-07
3.7705009e-08
1.1740892e-08
3.2343559e-09
7.8886999e-10
1.6675996e-10
2.9217579e-11
4.1243435e-12
7.4033602e-13
5.0468108e-13
5.3106782e-13
0.0010033537
0.00025064348
0.00050418451
0.00060712696
0.00029202752
0.00014522046
7.7226774e-05
4.1902404e-05
2.2129669e-05
1.2274053e-05
7.8680602e-06
5.9204416e-06
3.4562848e-06
2.2438331e-06
1.7116131e-06
1.168963e-06
7.6021145e-07
4.6281066e-07
2.4989635e-07
1.052132e-07
3.7666782e-08
1.1728185e-08
3.230742e-09
7.8797793e-10
1.665711e-10
2.9184657e-11
4.1198043e-12
7.3961474e-13
5.0423576e-13
5.3060046e-13
0.0010038734
0.00025073408
0.00050438964
0.00060831583
0.00029286924
0.00014571729
7.7432817e-05
4.1951698e-05
2.2131085e-05
1.226698e-05
7.8636747e-06
5.9184086e-06
3.4544077e-06
2.2434246e-06
1.7110955e-06
1.1685628e-06
7.5989612e-07
4.6257571e-07
2.4971018e-07
1.0511945e-07
3.7629123e-08
1.1715662e-08
3.22718e-09
7.8709862e-10
1.6638494e-10
2.9152206e-11
4.1153303e-12
7.3890389e-13
5.037969e-13
5.3013986e-13
0.0010043879
0.00025082718
0.00050459511
0.00060950563
0.00029371311
0.00014621563
7.7640638e-05
4.2001705e-05
2.2132591e-05
1.2259973e-05
7.859356e-06
5.9164201e-06
3.4525808e-06
2.2430424e-06
1.7105993e-06
1.1681764e-06
7.5958967e-07
4.623462e-07
2.4952727e-07
1.0502715e-07
3.7592009e-08
1.1703311e-08
3.2236654e-09
7.862307e-10
1.6620113e-10
2.9120154e-11
4.1109091e-12
7.3820042e-13
5.0336209e-13
5.2968348e-13
0.001004897
0.00025092279
0.00050480106
0.00061069619
0.00029455867
0.00014671513
7.7850033e-05
4.2052416e-05
2.2134205e-05
1.2253035e-05
7.8551048e-06
5.91448e-06
3.4508029e-06
2.2426869e-06
1.7101245e-06
1.1678038e-06
7.5929222e-07
4.6212233e-07
2.4934768e-07
1.0493634e-07
3.7555457e-08
1.1691143e-08
3.2202022e-09
7.8537549e-10
1.6602003e-10
2.9088578e-11
4.1065541e-12
7.3750737e-13
5.0293359e-13
5.2923368e-13
0.0010054007
0.00025102081
0.00050500741
0.00061188675
0.00029540565
0.00014721541
7.8060854e-05
4.2103852e-05
2.2135947e-05
1.2246169e-05
7.8509206e-06
5.9125885e-06
3.4490728e-06
2.2423583e-06
1.7096711e-06
1.1674449e-06
7.5900359e-07
4.6190389e-07
2.4917133e-07
1.0484697e-07
3.7519428e-08
1.1679136e-08
3.2167825e-09
7.8453049e-10
1.6584098e-10
2.9057346e-11
4.1022444e-12
7.3682107e-13
5.0250908e-13
5.2878801e-13
0.0010058991
0.00025112113
0.0005052132
0.00061307582
0.00029625297
0.0001477158
7.8272974e-05
4.2156004e-05
2.2137818e-05
1.2239378e-05
7.8468005e-06
5.9107466e-06
3.4473894e-06
2.2420567e-06
1.7092389e-06
1.1670999e-06
7.5872395e-07
4.6169109e-07
2.489983e-07
1.0475909e-07
3.7483969e-08
1.1667314e-08
3.2134148e-09
7.8369833e-10
1.6566468e-10
2.9026593e-11
4.098e-12
7.3614418e-13
5.0208978e-13
5.2834777e-13
0.001006392
0.00025122359
0.00050541748
0.00061426208
0.00029709934
0.00014821561
7.8486202e-05
4.2208834e-05
2.2139823e-05
1.2232667e-05
7.8427473e-06
5.9089577e-06
3.4457524e-06
2.2417827e-06
1.7088275e-06
1.1667684e-06
7.5845312e-07
4.6148378e-07
2.4882857e-07
1.0467269e-07
3.7449053e-08
1.1655663e-08
3.2100941e-09
7.8287748e-10
1.654907e-10
2.8996236e-11
4.0938075e-12
7.3547345e-13
5.0167314e-13
5.2791029e-13
0.0010068794
0.00025132801
0.00050562014
0.00061544479
0.00029794412
0.00014871448
7.8700381e-05
4.2262322e-05
2.214197e-05
1.2226041e-05
7.8387621e-06
5.9072237e-06
3.4441614e-06
2.2415363e-06
1.7084369e-06
1.1664505e-06
7.581912e-07
4.6128214e-07
2.4866221e-07
1.045878e-07
3.7414713e-08
1.1644199e-08
3.2068264e-09
7.8206979e-10
1.6531956e-10
2.8966377e-11
4.0896831e-12
7.3481228e-13
5.0126159e-13
5.2747811e-13
0.0010073613
0.00025143425
0.00050582061
0.00061662212
0.00029878673
0.00014921218
7.8915423e-05
4.231647e-05
2.2144261e-05
1.22195e-05
7.8348442e-06
5.9055441e-06
3.4426154e-06
2.2413176e-06
1.7080669e-06
1.1661459e-06
7.5793778e-07
4.6108579e-07
2.4849905e-07
1.0450433e-07
3.7380892e-08
1.1632896e-08
3.2036017e-09
7.8127219e-10
1.6515045e-10
2.8936859e-11
4.0856028e-12
7.341566e-13
5.0085263e-13
5.2704857e-13
0.0010078378
0.00025154213
0.00050601826
0.00061779242
0.00029962614
0.00014970837
7.9131256e-05
4.2371303e-05
2.2146702e-05
1.2213045e-05
7.8309942e-06
5.9039188e-06
3.4411135e-06
2.2411266e-06
1.7077177e-06
1.1658547e-06
7.5769289e-07
4.6089476e-07
2.4833911e-07
1.0442234e-07
3.7347632e-08
1.1621774e-08
3.2004285e-09
7.8048739e-10
1.6498407e-10
2.8907819e-11
4.0815866e-12
7.335084e-13
5.0044673e-13
5.2662222e-13
0.0010083087
0.00025165143
0.00050621227
0.00061895413
0.00030046098
0.00015020245
7.9347694e-05
4.2426791e-05
2.2149308e-05
1.220668e-05
7.8272135e-06
5.9023491e-06
3.4396547e-06
2.2409633e-06
1.7073889e-06
1.1655765e-06
7.5745613e-07
4.6070864e-07
2.4818211e-07
1.0434165e-07
3.7314853e-08
1.1610804e-08
3.1972967e-09
7.7971249e-10
1.6481974e-10
2.8879125e-11
4.0776137e-12
7.3286347e-13
5.0004084e-13
5.2619585e-13
0.0010087741
0.00025176188
0.0005064013
0.00062010469
0.00030128996
0.00015069389
7.9564569e-05
4.248288e-05
2.2152079e-05
1.2200411e-05
7.8234999e-06
5.9008352e-06
3.4382397e-06
2.2408279e-06
1.7070807e-06
1.1653116e-06
7.5722773e-07
4.6052763e-07
2.4802808e-07
1.0426228e-07
3.7282573e-08
1.1599997e-08
3.194211e-09
7.7894914e-10
1.6465789e-10
2.8850871e-11
4.0737002e-12
7.3222563e-13
4.996379e-13
5.2577256e-13
0.0010092341
0.00025187324
0.00050658437
0.000621242
0.00030211235
0.00015118255
7.9781816e-05
4.2539563e-05
2.2155019e-05
1.2194241e-05
7.8198543e-06
5.8993763e-06
3.436868e-06
2.2407204e-06
1.706793e-06
1.1650598e-06
7.5700736e-07
4.6035136e-07
2.4787677e-07
1.0418407e-07
3.72507e-08
1.158931e-08
3.1911569e-09
7.7819295e-10
1.6449746e-10
2.8822846e-11
4.0698148e-12
7.315902e-13
4.9923541e-13
5.2534971e-13
0.0010096886
0.00025198531
0.00050676055
0.00062236468
0.00030292773
0.00015166822
7.9999341e-05
4.2596834e-05
2.2158141e-05
1.2188174e-05
7.8162781e-06
5.8979743e-06
3.4355395e-06
2.2406411e-06
1.7065261e-06
1.1648214e-06
7.567954e-07
4.6018018e-07
2.4772842e-07
1.0410718e-07
3.721932e-08
1.1578782e-08
3.1881473e-09
7.7744779e-10
1.6433938e-10
2.8795234e-11
4.0659842e-12
7.3096067e-13
4.9883494e-13
5.2492899e-13
0.0010101376
0.00025209794
0.00050692927
0.00062347163
0.00030373541
0.00015215043
8.0217073e-05
4.2654708e-05
2.2161458e-05
1.2182212e-05
7.8127725e-06
5.8966309e-06
3.4342539e-06
2.2405904e-06
1.7062798e-06
1.1645963e-06
7.5659159e-07
4.600138e-07
2.4758287e-07
1.0403148e-07
3.7188368e-08
1.1568385e-08
3.1851724e-09
7.7671071e-10
1.6418292e-10
2.876789e-11
4.0621857e-12
7.3033231e-13
4.9843305e-13
5.2450677e-13
0.0010105812
0.0002522109
0.00050709008
0.00062456143
0.00030453442
0.00015262885
8.0434981e-05
4.2713174e-05
2.2164971e-05
1.2176355e-05
7.8093353e-06
5.8953451e-06
3.4330113e-06
2.2405681e-06
1.7060545e-06
1.1643847e-06
7.5639636e-07
4.5985262e-07
2.4744024e-07
1.0395706e-07
3.7157896e-08
1.1558141e-08
3.182241e-09
7.7598443e-10
1.6402878e-10
2.8740953e-11
4.0584414e-12
7.2971003e-13
4.9803345e-13
5.2408696e-13
0.0010110194
0.00025232385
0.00050724131
0.00062563307
0.0003053243
0.00015310343
8.0653016e-05
4.2772192e-05
2.2168673e-05
1.2170605e-05
7.8059655e-06
5.8941159e-06
3.4318115e-06
2.2405744e-06
1.70585e-06
1.1641866e-06
7.5620941e-07
4.5969628e-07
2.4730033e-07
1.0388377e-07
3.7127809e-08
1.1548011e-08
3.1793381e-09
7.7526445e-10
1.6387584e-10
2.8714204e-11
4.0547191e-12
7.2908931e-13
4.9763387e-13
5.2366715e-13
0.0010114522
0.00025243657
0.00050738252
0.00062668575
0.00030610486
0.00015357417
8.0871109e-05
4.2831739e-05
2.2172579e-05
1.2164966e-05
7.8026658e-06
5.8929455e-06
3.4306549e-06
2.2406096e-06
1.7056665e-06
1.1640024e-06
7.5603127e-07
4.5954537e-07
2.4716354e-07
1.0381187e-07
3.7098245e-08
1.1538049e-08
3.1764827e-09
7.7455627e-10
1.6372542e-10
2.8687896e-11
4.0510559e-12
7.2847558e-13
4.9723721e-13
5.2325042e-13
0.0010118798
0.00025254892
0.00050751354
0.00062771958
0.00030687598
0.00015404104
8.1089185e-05
4.2891795e-05
2.217671e-05
1.2159444e-05
7.7994398e-06
5.891837e-06
3.4295418e-06
2.2406736e-06
1.7055038e-06
1.1638317e-06
7.5586169e-07
4.5939959e-07
2.4702975e-07
1.0374127e-07
3.7069148e-08
1.1528231e-08
3.1736662e-09
7.7385722e-10
1.6357685e-10
2.8661897e-11
4.0474302e-12
7.2786381e-13
4.9683961e-13
5.2283266e-13
0.001012302
0.00025266077
0.00050763404
0.00062873324
0.00030763756
0.00015450404
8.1307236e-05
4.2952347e-05
2.2181081e-05
1.2154037e-05
7.7962852e-06
5.8907877e-06
3.4284719e-06
2.2407664e-06
1.7053623e-06
1.1636751e-06
7.557011e-07
4.5925933e-07
2.468991e-07
1.0367206e-07
3.7040579e-08
1.1518585e-08
3.1708985e-09
7.7317043e-10
1.6343093e-10
2.8636366e-11
4.0438678e-12
7.2725964e-13
4.9644522e-13
5.2241828e-13
0.0010127189
0.00025277188
0.00050774384
0.00062972613
0.00030838931
0.00015496299
8.1525271e-05
4.3013377e-05
2.2185702e-05
1.2148745e-05
7.7931999e-06
5.8897956e-06
3.4274446e-06
2.2408879e-06
1.7052418e-06
1.1635322e-06
7.5554897e-07
4.5912403e-07
2.467712e-07
1.0360399e-07
3.7012396e-08
1.150905e-08
3.1681588e-09
7.7248976e-10
1.6328616e-10
2.8611014e-11
4.0403261e-12
7.2665694e-13
4.9605086e-13
5.2200387e-13
0.0010131307
0.00025288189
0.00050784225
0.00063069907
0.0003091308
0.0001554177
8.1743228e-05
4.3074822e-05
2.2190594e-05
1.2143574e-05
7.7901829e-06
5.8888634e-06
3.4264606e-06
2.2410382e-06
1.7051425e-06
1.1634033e-06
7.5540587e-07
4.5899428e-07
2.4664649e-07
1.0353733e-07
3.6984747e-08
1.1499688e-08
3.1654681e-09
7.7182128e-10
1.6314401e-10
2.8586122e-11
4.0368459e-12
7.2606131e-13
4.9565929e-13
5.2159241e-13
0.0010135373
0.00025299073
0.00050792929
0.00063165284
0.00030986241
0.00015586824
8.1961054e-05
4.3136678e-05
2.2195733e-05
1.2138537e-05
7.7872338e-06
5.8879935e-06
3.4255203e-06
2.2412174e-06
1.705064e-06
1.1632882e-06
7.5527153e-07
4.5886983e-07
2.4652484e-07
1.0347199e-07
3.6957568e-08
1.149047e-08
3.1628161e-09
7.7116189e-10
1.6300369e-10
2.8561535e-11
4.0334026e-12
7.2546751e-13
4.9526667e-13
5.2117982e-13
0.0010139388
0.0002530983
0.00050800473
0.00063258824
0.0003105849
0.0001563149
8.2178772e-05
4.3198982e-05
2.2201076e-05
1.213363e-05
7.7843606e-06
5.8871849e-06
3.4246238e-06
2.2414256e-06
1.7050067e-06
1.1631874e-06
7.5514646e-07
4.5875117e-07
2.4640648e-07
1.0340812e-07
3.6930947e-08
1.1481435e-08
3.1602161e-09
7.7051559e-10
1.6286621e-10
2.853745e-11
4.0300274e-12
7.2488215e-13
4.9487783e-13
5.2077119e-13
0.0010143352
0.00025320439
0.00050813565
0.00063350491
0.00031129857
0.00015675795
8.239641e-05
4.3261748e-05
2.2206603e-05
1.2128851e-05
7.7815654e-06
5.8864367e-06
3.4237707e-06
2.2416624e-06
1.7049702e-06
1.1631003e-06
7.5503002e-07
4.5863764e-07
2.4629102e-07
1.0334545e-07
3.6904739e-08
1.1472519e-08
3.1576464e-09
7.6987599e-10
1.6273001e-10
2.8513566e-11
4.026676e-12
7.2429871e-13
4.9448925e-13
5.203628e-13
0.0010147266
0.00025330881
0.00050853952
0.00063440251
0.00031200382
0.00015719746
8.2613957e-05
4.332499e-05
2.2212321e-05
1.2124196e-05
7.77885e-06
5.8857503e-06
3.4229607e-06
2.241928e-06
1.7049547e-06
1.1630271e-06
7.5492266e-07
4.5852977e-07
2.4617885e-07
1.0328426e-07
3.687909e-08
1.1463786e-08
3.1551284e-09
7.6924927e-10
1.6259657e-10
2.8490168e-11
4.0233896e-12
7.2372258e-13
4.9410344e-13
5.1995731e-13
0.0010151131
0.00025341141
0.00050892802
0.00063528163
0.00031270055
0.00015763339
8.2831334e-05
4.3388663e-05
2.2218231e-05
1.2119666e-05
7.7762155e-06
5.8851272e-06
3.4221938e-06
2.2422222e-06
1.7049594e-06
1.1629675e-06
7.5482387e-07
4.5842709e-07
2.4606971e-07
1.0322437e-07
3.6853905e-08
1.1455194e-08
3.1526485e-09
7.6863153e-10
1.6246495e-10
2.8467074e-11
4.0201397e-12
7.2314794e-13
4.9371618e-13
5.1955026e-13
0.0010154946
0.00025351212
0.00050930608
0.00063614329
0.00031338808
0.00015806581
8.3048509e-05
4.345272e-05
2.2224322e-05
1.2115264e-05
7.773661e-06
5.8845649e-06
3.4214698e-06
2.2425449e-06
1.704985e-06
1.1629219e-06
7.5473422e-07
4.5833012e-07
2.4596379e-07
1.0316592e-07
3.682927e-08
1.1446783e-08
3.1502202e-09
7.680268e-10
1.6233616e-10
2.8444481e-11
4.016958e-12
7.225817e-13
4.9333264e-13
5.1914711e-13
0.0010158714
0.00025361096
0.00050967449
0.00063698874
0.0003140667
0.00015849488
8.3265473e-05
4.3517127e-05
2.2230583e-05
1.2110984e-05
7.7711851e-06
5.8840622e-06
3.4207881e-06
2.2428956e-06
1.705031e-06
1.1628896e-06
7.5465295e-07
4.5823813e-07
2.4586065e-07
1.0310861e-07
3.6805019e-08
1.1438482e-08
3.1478196e-09
7.674281e-10
1.622085e-10
2.8422066e-11
4.0137971e-12
7.2201716e-13
4.9294935e-13
5.1874418e-13
0.0010162433
0.00025370786
0.00051003129
0.00063782025
0.00031473767
0.00015892065
8.3482155e-05
4.3581857e-05
2.2237014e-05
1.2106829e-05
7.768789e-06
5.8836214e-06
3.420149e-06
2.2432745e-06
1.7050972e-06
1.162871e-06
7.5458056e-07
4.581517e-07
2.4576076e-07
1.0305277e-07
3.6781328e-08
1.1430364e-08
3.145471e-09
7.6684243e-10
1.6208366e-10
2.8400146e-11
4.0107026e-12
7.2146013e-13
4.9256892e-13
5.1834425e-13
0.0010166105
0.0002538027
0.00051037423
0.00063863838
0.00031540203
0.00015934324
8.3698555e-05
4.3646908e-05
2.2243617e-05
1.2102794e-05
7.7664711e-06
5.8832432e-06
3.4195516e-06
2.2436814e-06
1.7051831e-06
1.1628655e-06
7.5451651e-07
4.5807032e-07
2.4566383e-07
1.029982e-07
3.6758093e-08
1.1422386e-08
3.1431602e-09
7.6626569e-10
1.6196062e-10
2.8378528e-11
4.0076445e-12
7.2090452e-13
4.9218697e-13
5.1794269e-13
0.001016973
0.00025389541
0.00051070258
0.00063944233
0.00031606059
0.00015976286
8.3914693e-05
4.3712252e-05
2.2250372e-05
1.2098873e-05
7.7642284e-06
5.8829251e-06
3.4189969e-06
2.2441164e-06
1.7052895e-06
1.1628736e-06
7.5446135e-07
4.579945e-07
2.4557006e-07
1.0294506e-07
3.6735405e-08
1.1414587e-08
3.140901e-09
7.6570202e-10
1.6184043e-10
2.8357417e-11
4.0046554e-12
7.2035729e-13
4.9180863e-13
5.175449e-13
0.0010173309
0.00025398597
0.00051101758
0.00064023252
0.0003167138
0.00016017966
8.4130517e-05
4.3777844e-05
2.2257264e-05
1.2095065e-05
7.762059e-06
5.8826662e-06
3.4184842e-06
2.2445791e-06
1.7054157e-06
1.1628947e-06
7.544143e-07
4.5792345e-07
2.4547895e-07
1.02893e-07
3.671308e-08
1.1406894e-08
3.1386681e-09
7.651441e-10
1.6172134e-10
2.8336478e-11
4.0016865e-12
7.1981162e-13
4.9143041e-13
5.171472e-13
0.0010176843
0.00025407435
0.0005113206
0.00064101006
0.00031736136
0.00016059373
8.4345998e-05
4.3843659e-05
2.2264291e-05
1.2091368e-05
7.7599647e-06
5.8824689e-06
3.4180137e-06
2.2450698e-06
1.7055617e-06
1.162929e-06
7.543759e-07
4.5785782e-07
2.45391e-07
1.0284237e-07
3.6691295e-08
1.1399376e-08
3.1364853e-09
7.6459873e-10
1.6160495e-10
2.8316018e-11
3.9987821e-12
7.1927336e-13
4.910551e-13
5.1675256e-13
0.0010180332
0.00025416054
0.00051161287
0.00064177624
0.00031800329
0.00016100524
8.4561101e-05
4.3909648e-05
2.2271448e-05
1.2087784e-05
7.7579464e-06
5.882334e-06
3.4175855e-06
2.2455884e-06
1.7057269e-06
1.1629761e-06
7.5434559e-07
4.5779711e-07
2.4530593e-07
1.0279296e-07
3.6669949e-08
1.1391991e-08
3.134338e-09
7.6406168e-10
1.6149025e-10
2.8295837e-11
3.9959114e-12
7.1873642e-13
4.9067837e-13
5.163564e-13
0.0010183778
0.00025424452
0.00051189521
0.00064253201
0.00031864028
0.00016141428
8.4775944e-05
4.3975803e-05
2.2278726e-05
1.2084308e-05
7.7559996e-06
5.8822576e-06
3.4171994e-06
2.2461348e-06
1.7059122e-06
1.1630365e-06
7.5432394e-07
4.5774185e-07
2.4522398e-07
1.0274496e-07
3.6649138e-08
1.1384782e-08
3.1322408e-09
7.6353723e-10
1.6137826e-10
2.827614e-11
3.9931061e-12
7.1820742e-13
4.9030507e-13
5.1596383e-13
0.001018718
0.00025432625
0.00051216764
0.00064327783
0.00031927305
0.00016182087
8.4990357e-05
4.404212e-05
2.228612e-05
1.2080931e-05
7.7541215e-06
5.8822376e-06
3.4168546e-06
2.2467087e-06
1.7061169e-06
1.1631093e-06
7.5431006e-07
4.5769118e-07
2.4514458e-07
1.02698e-07
3.6628676e-08
1.1377673e-08
3.1301686e-09
7.6301824e-10
1.6126732e-10
2.8256605e-11
3.9903202e-12
7.1768013e-13
4.8993215e-13
5.1557161e-13
0.0010190539
0.00025440571
0.00051243037
0.00064401425
0.000319902
0.00016222495
8.5204248e-05
4.4108564e-05
2.2293618e-05
1.2077651e-05
7.7523131e-06
5.8822776e-06
3.4165515e-06
2.2473104e-06
1.706341e-06
1.163195e-06
7.5430455e-07
4.576458e-07
2.4506829e-07
1.0265245e-07
3.6608756e-08
1.1370741e-08
3.1281472e-09
7.6251203e-10
1.6115914e-10
2.8237558e-11
3.9875998e-12
7.1716034e-13
4.8956214e-13
5.1518245e-13
0.0010193857
0.00025448288
0.00051268388
0.00064474137
0.00032052722
0.00016262659
8.5417538e-05
4.4175099e-05
2.230122e-05
1.2074469e-05
7.7505733e-06
5.8823791e-06
3.4162902e-06
2.24794e-06
1.7065841e-06
1.1632931e-06
7.5430688e-07
4.5760516e-07
2.4499481e-07
1.0260811e-07
3.6589268e-08
1.1363942e-08
3.1261617e-09
7.620143e-10
1.6105269e-10
2.8218803e-11
3.984915e-12
7.1664217e-13
4.8919089e-13
5.1479195e-13
0.0010197135
0.00025455775
0.00051292744
0.00064545876
0.00032114863
0.00016302597
8.5630212e-05
4.4241695e-05
2.2308915e-05
1.2071382e-05
7.7488991e-06
5.8825382e-06
3.4160708e-06
2.2485976e-06
1.706847e-06
1.1634042e-06
7.5431766e-07
4.5756988e-07
2.4492439e-07
1.0256516e-07
3.6570313e-08
1.1357319e-08
3.1242267e-09
7.6152937e-10
1.6094902e-10
2.8200541e-11
3.9822974e-12
7.1613228e-13
4.888233e-13
5.1440529e-13
0.0010200372
0.00025463039
0.00051316117
0.00064616673
0.00032176655
0.00016342317
8.5842238e-05
4.4308328e-05
2.2316696e-05
1.2068385e-05
7.7472878e-06
5.8827533e-06
3.4158926e-06
2.2492829e-06
1.707129e-06
1.1635275e-06
7.54336e-07
4.5753909e-07
2.448565e-07
1.0252323e-07
3.6551706e-08
1.1350796e-08
3.122317e-09
7.6105e-10
1.6084642e-10
2.8182451e-11
3.9797007e-12
7.1562449e-13
4.8845639e-13
5.140193e-13
0.001020357
0.00025470091
0.00051338599
0.0006468658
0.00032238146
0.00016381836
8.6053626e-05
4.4375004e-05
2.2324562e-05
1.2065476e-05
7.7457392e-06
5.8830262e-06
3.4157559e-06
2.2499963e-06
1.7074303e-06
1.1636633e-06
7.5436239e-07
4.575134e-07
2.4479165e-07
1.024827e-07
3.6533633e-08
1.1344448e-08
3.1204571e-09
7.6058318e-10
1.6074652e-10
2.8164838e-11
3.9771681e-12
7.1512393e-13
4.8809222e-13
5.1363618e-13
0.001020673
0.00025476932
0.0005136024
0.00064755684
0.00032299316
0.00016421157
8.62644e-05
4.4441712e-05
2.2332508e-05
1.2062653e-05
7.7442523e-06
5.8833556e-06
3.4156603e-06
2.2507377e-06
1.7077503e-06
1.163811e-06
7.5439615e-07
4.574921e-07
2.4472942e-07
1.0244329e-07
3.6515958e-08
1.1338222e-08
3.11863e-09
7.6012403e-10
1.606482e-10
2.8147488e-11
3.9746669e-12
7.1462434e-13
4.8772638e-13
5.1325126e-13
0.0010209854
0.00025483557
0.00051381095
0.00064824044
0.00032360105
0.00016460255
8.647446e-05
4.4508424e-05
2.234053e-05
1.2059909e-05
7.7428225e-06
5.8837368e-06
3.4156053e-06
2.251507e-06
1.7080904e-06
1.1639716e-06
7.5443799e-07
4.5747581e-07
2.4467003e-07
1.0240517e-07
3.6498776e-08
1.1332158e-08
3.1168496e-09
7.5967671e-10
1.6055243e-10
2.8130594e-11
3.9722281e-12
7.1413253e-13
4.8736405e-13
5.1287003e-13
0.0010212941
0.00025489958
0.00051401161
0.00064891556
0.00032420504
0.00016499128
8.6683738e-05
4.4575118e-05
2.2348629e-05
1.2057242e-05
7.7414463e-06
5.8841697e-06
3.4155906e-06
2.2523041e-06
1.7084499e-06
1.1641441e-06
7.5448703e-07
4.5746365e-07
2.446129e-07
1.0236793e-07
3.6481883e-08
1.1326174e-08
3.1150884e-09
7.5923343e-10
1.6045741e-10
2.8113812e-11
3.9698024e-12
7.136421e-13
4.8700227e-13
5.1248932e-13
0.0010215993
0.00025496136
0.00051420355
0.00064958072
0.00032480539
0.00016537807
8.6892266e-05
4.4641786e-05
2.2356805e-05
1.2054654e-05
7.7401261e-06
5.8846581e-06
3.415617e-06
2.2531298e-06
1.7088291e-06
1.1643291e-06
7.5454403e-07
4.5745644e-07
2.4455867e-07
1.0233201e-07
3.6465497e-08
1.1320356e-08
3.1133746e-09
7.5880206e-10
1.6036496e-10
2.8097485e-11
3.9674378e-12
7.1315876e-13
4.8664331e-13
5.1211159e-13
0.0010219012
0.00025502074
0.00051438595
0.00065023518
0.00032540189
0.00016576284
8.7099981e-05
4.4708431e-05
2.2365064e-05
1.2052146e-05
7.73886e-06
5.8852012e-06
3.415684e-06
2.253984e-06
1.7092276e-06
1.1645263e-06
7.5460845e-07
4.5745361e-07
2.4450701e-07
1.0229718e-07
3.644949e-08
1.1314652e-08
3.1116912e-09
7.5837773e-10
1.6027392e-10
2.8081391e-11
3.9651009e-12
7.1267614e-13
4.8628276e-13
5.1173215e-13
0.0010221997
0.00025507789
0.00051455836
0.00065087824
0.00032599438
0.00016614539
8.7306817e-05
4.4775056e-05
2.2373406e-05
1.2049714e-05
7.7376449e-06
5.8857962e-06
3.4157919e-06
2.2548671e-06
1.7096467e-06
1.1647366e-06
7.546811e-07
4.574559e-07
2.4445826e-07
1.0226367e-07
3.6433992e-08
1.1309116e-08
3.110056e-09
7.579656e-10
1.6018553e-10
2.8065768e-11
3.9628283e-12
7.1220174e-13
4.859261e-13
5.1135678e-13
0.0010224952
0.00025513302
0.00051472051
0.00065150893
0.00032658271
0.00016652574
8.7512812e-05
4.4841673e-05
2.2381836e-05
1.2047356e-05
7.7364788e-06
5.8864398e-06
3.4159399e-06
2.2557788e-06
1.7100858e-06
1.1649591e-06
7.54761e-07
4.5746233e-07
2.4441177e-07
1.0223104e-07
3.6418777e-08
1.1303657e-08
3.1084388e-09
7.5755714e-10
1.6009779e-10
2.8050238e-11
3.960566e-12
7.1172829e-13
4.8556971e-13
5.1098167e-13
0.0010227876
0.00025518617
0.00051487223