/*--------------------------------*- C++ -*----------------------------------*\
| =========                 |                                                 |
| \\      /  F ield         | OpenFOAM: The Open Source CFD Toolbox           |
|  \\    /   O peration     | Version:  v2012                                 |
|   \\  /    A nd           | Website:  www.openfoam.com                      |
|    \\/     M anipulation  |                                                 |
\*---------------------------------------------------------------------------*/
FoamFile
{
    version     2.0;
    format      ascii;
    class       volScalarField;
    location    "200";
    object      k;
}
// * * * * * * * * * * * * * * * * * * * * * * * * * * * * * * * * * * * * * //

dimensions      [0 2 -2 0 0 0 0];


internalField   nonuniform List<scalar> 
24000
(
0.092895212
0.099782618
0.095999061
0.09537341
0.09773686
0.10476548
0.11805418
0.13920254
0.17443379
0.22971162
0.2692327
0.22810859
0.1740195
0.26314595
0.47412539
0.5898567
0.57664019
0.46749499
0.32102647
0.18854006
0.099078971
0.048043236
0.021787957
0.0092153979
0.0035730794
0.0012332857
0.00037814553
0.00016668182
0.00038363091
0.0027471151
0.092893816
0.099783231
0.095985375
0.095342968
0.097671258
0.10461567
0.11777843
0.13872112
0.17350433
0.22786634
0.26746003
0.22720563
0.17133563
0.2565002
0.46781021
0.58645108
0.5769406
0.47026316
0.32418166
0.19106947
0.10072636
0.048972274
0.02225313
0.0094247345
0.0036584283
0.001266324
0.00039547351
0.00019335811
0.00048029008
0.0034443491
0.092885273
0.099767278
0.095961548
0.09531174
0.097611691
0.10449341
0.11756355
0.13838591
0.17299325
0.22724393
0.26715767
0.22732456
0.17080113
0.25460909
0.46619454
0.58647865
0.57924397
0.47448955
0.32947899
0.19528485
0.10333769
0.050353713
0.022909155
0.009708914
0.0037693222
0.0013031308
0.00040267217
0.00018543151
0.00044133714
0.0031615177
0.09287665
0.099751268
0.095938955
0.095282009
0.097558212
0.10438363
0.11736896
0.13810329
0.17263629
0.22683974
0.26681998
0.22719913
0.17065672
0.25438301
0.46589586
0.58618338
0.57875111
0.47350434
0.32801283
0.19392128
0.10239564
0.049818174
0.022643048
0.0095904481
0.0037222694
0.0012871138
0.00039883627
0.0001867331
0.00044996444
0.0032246504
0.092868091
0.09973543
0.095917196
0.09525309
0.097506336
0.10427594
0.11717719
0.13782522
0.17228013
0.2264137
0.26641553
0.2269482
0.17055272
0.25430093
0.46561391
0.58579735
0.5783828
0.47330593
0.32801317
0.19399685
0.10246537
0.049861465
0.022665244
0.0096004205
0.0037262087
0.0012883955
0.00039900899
0.00018621334
0.00044764905
0.0032077953
0.092859571
0.099720067
0.095896223
0.095224756
0.097455756
0.10417002
0.11698715
0.13755032
0.17192689
0.22599793
0.26602383
0.22668227
0.17042034
0.25427544
0.46547858
0.58549713
0.57796044
0.47285127
0.32760421
0.19370966
0.10229654
0.049774171
0.022624309
0.0095828472
0.0037193723
0.0012860569
0.00039833798
0.00018603526
0.00044746044
0.0032065191
0.092851105
0.099705086
0.095875833
0.095196766
0.097405829
0.1040645
0.11679779
0.13727591
0.17157356
0.22558452
0.26563467
0.22641272
0.17028605
0.25426384
0.46536213
0.585208
0.57754855
0.47242295
0.32724541
0.19347442
0.10216606
0.04970959
0.022594934
0.0095704844
0.0037146148
0.0012844252
0.00039783389
0.00018579324
0.00044686383
0.0032022388
0.092842696
0.099690479
0.095855855
0.095168974
0.097356253
0.10395923
0.11660869
0.13700186
0.17122052
0.22517326
0.26525098
0.22614904
0.17015229
0.2542519
0.46525153
0.58492358
0.57713621
0.4719873
0.32687348
0.19322685
0.10202711
0.049640226
0.0225632
0.0095570804
0.0037094484
0.0012826568
0.0003972995
0.0001855688
0.00044636584
0.0031986809
0.09283435
0.099676195
0.095836162
0.095141297
0.097306828
0.10385423
0.11641983
0.13672794
0.17086836
0.22476373
0.26487255
0.22589198
0.1700214
0.2542354
0.46513594
0.58463766
0.57672721
0.47155882
0.32651042
0.19298645
0.10189269
0.049573295
0.022532631
0.0095441824
0.0037044803
0.0012809563
0.00039678453
0.00018534906
0.00044587115
0.0031951429
0.092826076
0.099662181
0.095816692
0.09511369
0.097257519
0.1037495
0.11623128
0.13645434
0.17051723
0.2243561
0.26449961
0.22564223
0.16989381
0.25421367
0.46501402
0.58434948
0.57632114
0.47113655
0.3261544
0.19275129
0.10176136
0.049507928
0.022502777
0.0095315838
0.0036996261
0.0012792945
0.00039628156
0.00018513574
0.00044539372
0.0031917297
0.092817879
0.099648378
0.09579742
0.095086141
0.09720832
0.10364508
0.11604318
0.13618118
0.17016723
0.22395059
0.26413211
0.22539949
0.16976954
0.25418738
0.46488638
0.58405943
0.57591801
0.47072025
0.32580512
0.19252116
0.10163298
0.049444061
0.02247361
0.0095192743
0.0036948825
0.0012776702
0.00039578963
0.00018492654
0.00044492465
0.0031883774
0.092809767
0.099634728
0.095778245
0.095058657
0.09715924
0.10354103
0.11585561
0.13590858
0.16981848
0.22354749
0.26376993
0.22516324
0.16964842
0.25415748
0.46475425
0.58376825
0.57551768
0.47030896
0.32546123
0.19229494
0.10150685
0.049381305
0.022444939
0.0095071671
0.0036902143
0.0012760707
0.00039530482
0.00018471995
0.00044446105
0.0031850661
0.092801747
0.099621212
0.095759161
0.095031237
0.097110296
0.10343742
0.11566868
0.13563663
0.16947102
0.22314697
0.26341285
0.22493292
0.16953024
0.25412486
0.46461881
0.58347667
0.57512018
0.4699021
0.32512177
0.1920718
0.10138245
0.049319385
0.022416635
0.0094952095
0.0036856016
0.0012744897
0.00039482556
0.00018451607
0.00044400456
0.0031818075
0.092793825
0.099607819
0.095740166
0.095003885
0.097061515
0.10333429
0.11548247
0.13536542
0.1691249
0.22274916
0.26306067
0.22470801
0.16941482
0.25409027
0.46448093
0.58318526
0.5747257
0.46949961
0.32478657
0.1918516
0.10125967
0.049258246
0.022388667
0.0094833834
0.0036810357
0.0012729235
0.00039435074
0.00018431494
0.0004435563
0.0031786093
0.092786006
0.099594546
0.095721258
0.094976609
0.097012917
0.1032317
0.11529707
0.13509502
0.16878014
0.2223541
0.26271319
0.22448801
0.169302
0.25405439
0.46434151
0.58289464
0.57433449
0.46910151
0.32445549
0.19163424
0.10113849
0.04919789
0.022361049
0.009471701
0.0036765237
0.0012713755
0.00039388181
0.00018411772
0.00044311969
0.0031754953
0.092778296
0.099581392
0.095702443
0.094949422
0.096964521
0.10312971
0.11511254
0.13482551
0.16843678
0.22196184
0.26237025
0.22427251
0.16919165
0.25401781
0.46420129
0.5826054
0.57394689
0.46870799
0.32412869
0.19141984
0.10101899
0.049138373
0.02233381
0.0094601753
0.0036720708
0.0012698474
0.00039341921
0.00018392433
0.00044269384
0.0031724583
0.0927707
0.099568364
0.095683726
0.094922333
0.096916346
0.10302834
0.11492897
0.13455695
0.16809481
0.22157236
0.26203168
0.22406114
0.16908366
0.25398101
0.46406098
0.5823181
0.5735632
0.46831911
0.32380608
0.19120832
0.10090113
0.049079681
0.02230695
0.0094488113
0.0036676807
0.0012683411
0.00039296356
0.00018373464
0.00044227764
0.00316949
0.092763223
0.099555468
0.095665113
0.094895355
0.096868413
0.10292766
0.11474642
0.1342894
0.16775424
0.22118565
0.26169731
0.22385359
0.16897795
0.25394442
0.46392122
0.58203323
0.57318365
0.4679349
0.32348759
0.19099956
0.10078482
0.04902174
0.022280424
0.0094375831
0.0036633412
0.0012668516
0.00039251296
0.00018354744
0.00044186773
0.0031665667
0.092755869
0.099542712
0.095646613
0.094868498
0.096820738
0.10282768
0.11456495
0.13402291
0.16741508
0.22080169
0.261367
0.22364959
0.16887441
0.2539084
0.46378256
0.58175123
0.57280839
0.46755529
0.32317302
0.19079342
0.10066996
0.048964526
0.022254228
0.0094264937
0.0036590549
0.0012653803
0.00039206796
0.00018336287
0.00044146416
0.0031636887
0.09274864
0.099530107
0.095628234
0.094841772
0.09677334
0.10272845
0.1143846
0.13375752
0.16707734
0.22042045
0.26104056
0.22344887
0.16877298
0.25387326
0.46364544
0.58147243
0.57243757
0.46718025
0.3228623
0.19058981
0.10055651
0.048908004
0.022228343
0.0094155326
0.003654817
0.0012639252
0.00039162774
0.0001831802
0.00044106474
0.0031608402
0.092741541
0.099517663
0.095609987
0.094815188
0.096726232
0.10263
0.1142054
0.13349327
0.16674102
0.22004189
0.26071787
0.22325121
0.1686736
0.25383927
0.46351024
0.58119713
0.57207134
0.46680978
0.32255528
0.19038861
0.10044441
0.048852152
0.022202766
0.009404703
0.0036506303
0.0012624878
0.00039119294
0.00018299992
0.00044067074
0.0031580304
0.092734575
0.099505391
0.09559188
0.094788755
0.09667943
0.10253235
0.11402741
0.13323021
0.16640613
0.21966599
0.26039877
0.22305641
0.16857621
0.25380664
0.46337725
0.58092558
0.57170984
0.46644396
0.32225201
0.19018982
0.10033361
0.04879693
0.022177466
0.0093939854
0.0036464849
0.001261064
0.00039076213
0.00018282143
0.00044028102
0.003155251
0.092727743
0.0994933
0.095573923
0.094762481
0.096632946
0.10243552
0.11385066
0.13296836
0.16607267
0.21929269
0.26008312
0.22286427
0.16848077
0.25377557
0.46324676
0.58065799
0.57135319
0.46608284
0.3219525
0.18999347
0.10022417
0.048742388
0.02215248
0.0093834011
0.0036423913
0.001259658
0.00039033673
0.00018264517
0.00043989611
0.0031525058
0.092721048
0.099481402
0.095556127
0.094736375
0.09658679
0.10233953
0.11367516
0.13270777
0.16574066
0.21892194
0.25977079
0.22267464
0.16838725
0.25374625
0.46311899
0.58039459
0.57100156
0.46572649
0.32165677
0.18979955
0.10011606
0.048688494
0.022127783
0.0093729367
0.0036383429
0.0012582672
0.00038991571
0.00018247044
0.00043951404
0.0031497806
0.092714493
0.099469707
0.095538499
0.094710444
0.096540973
0.10224439
0.11350095
0.13244847
0.1654101
0.21855371
0.25946166
0.22248738
0.16829564
0.25371883
0.46299414
0.58013553
0.57065504
0.46537497
0.32136482
0.18960804
0.10000929
0.048635272
0.022103398
0.0093626064
0.0036343471
0.0012568946
0.00038950026
0.00018229795
0.00043913671
0.003147089
0.092708078
0.099458225
0.095521049
0.094684695
0.096495501
0.1021501
0.11332805
0.13219046
0.165081
0.21818797
0.25915565
0.22230237
0.1682059
0.25369346
0.46287243
0.57988101
0.57031377
0.46502835
0.32107668
0.18941892
0.099903794
0.048582663
0.022079282
0.0093523847
0.0036303913
0.0012555351
0.00038908858
0.0001821269
0.00043876229
0.0031444179
0.092701806
0.099446965
0.095503786
0.094659132
0.09645038
0.10205667
0.11315646
0.13193378
0.1647534
0.21782469
0.25885265
0.2221195
0.16811803
0.25367029
0.46275404
0.57963115
0.56997781
0.46468667
0.32079239
0.18923226
0.09979967
0.04853074
0.022055483
0.0093422988
0.0036264887
0.0012541941
0.00038868241
0.00018195786
0.00043839169
0.0031417736
0.092695677
0.099435937
0.095486717
0.09463376
0.096405614
0.10196411
0.1129862
0.13167845
0.16442729
0.21746385
0.25855258
0.22193866
0.16803201
0.25364943
0.46263908
0.57938608
0.56964726
0.46435
0.32051198
0.18904806
0.099696879
0.048479466
0.022031975
0.009332334
0.0036226318
0.0012528684
0.00038828061
0.00018179008
0.00043802281
0.0031391413
0.092689693
0.099425149
0.095469849
0.094608584
0.096361206
0.10187241
0.11281726
0.13142449
0.1641027
0.21710542
0.25825536
0.22175979
0.16794785
0.25363097
0.4625277
0.57914589
0.56932216
0.46401835
0.32023544
0.18886633
0.099595467
0.048428889
0.022008793
0.0093225097
0.0036188305
0.001251562
0.00038788463
0.00018162438
0.0004376577
0.0031365354
0.092683854
0.09941461
0.095453186
0.094583605
0.096317156
0.10178156
0.11264965
0.13117191
0.16377966
0.21674941
0.25796094
0.22158282
0.16786553
0.25361502
0.46242004
0.5789107
0.56900256
0.46369171
0.31996276
0.188687
0.099495335
0.048378924
0.02198588
0.009312795
0.0036150698
0.001250269
0.0003874924
0.00018145983
0.00043729438
0.0031339418
0.092678161
0.099404327
0.095436736
0.094558825
0.096273463
0.10169156
0.11248337
0.13092075
0.16345819
0.21639582
0.25766928
0.22140768
0.16778504
0.2536017
0.46231627
0.5786806
0.56868844
0.46337002
0.3196939
0.18851012
0.099396565
0.048329645
0.021963287
0.0093032179
0.0036113632
0.0012489947
0.00038710567
0.00018129688
0.00043693313
0.0031313626
0.092672613
0.099394306
0.095420506
0.094534247
0.096230126
0.10160239
0.1123184
0.13067101
0.16313832
0.21604465
0.25738035
0.22123431
0.16770635
0.25359108
0.46221654
0.57845572
0.56837981
0.46305316
0.31942868
0.18833549
0.099299002
0.04828095
0.021940954
0.0092937489
0.0036076974
0.0012477341
0.00038672266
0.00018113455
0.00043657148
0.00312878
0.092667211
0.099384555
0.095404496
0.094509871
0.096187139
0.10151405
0.11215474
0.13042271
0.16282008
0.21569587
0.2570941
0.22106267
0.16762948
0.25358322
0.46212092
0.57823608
0.56807664
0.46274106
0.31916698
0.18816306
0.099202655
0.048232869
0.021918909
0.009284405
0.0036040813
0.0012464909
0.0003863448
0.00018097376
0.0004362119
0.0031262119
0.092661954
0.09937508
0.095388708
0.094485695
0.096144498
0.10142652
0.11199239
0.13017586
0.16250349
0.2153495
0.25681052
0.22089271
0.16755441
0.25357818
0.46202951
0.57802179
0.56777899
0.46243366
0.3189087
0.18799266
0.099107344
0.048185263
0.021897066
0.0092751405
0.0036004939
0.0012452568
0.00038596936
0.00018081345
0.00043585244
0.0031236444
0.092656842
0.099365884
0.095373142
0.094461719
0.096102196
0.10133979
0.11183132
0.12993049
0.16218859
0.21500554
0.25652958
0.2207244
0.16748113
0.25357602
0.46194237
0.57781288
0.56748689
0.46213108
0.318654
0.18782448
0.099013238
0.048138257
0.0218755
0.0092659951
0.0035969532
0.001244039
0.00038559866
0.0001806544
0.00043549428
0.0031210858
0.092651873
0.09935697
0.095357804
0.094437941
0.096060227
0.10125383
0.11167154
0.1296866
0.16187541
0.214664
0.25625126
0.2205577
0.16740965
0.25357678
0.46185958
0.57760946
0.56720041
0.46183329
0.31840278
0.18765839
0.098920222
0.048091761
0.021854155
0.0092569387
0.0035934454
0.0012428318
0.00038523071
0.0001804955
0.00043513458
0.003118516
0.092647048
0.099348341
0.095342699
0.09441436
0.096018584
0.10116862
0.11151301
0.12944422
0.16156399
0.21432488
0.25597557
0.22039259
0.16733995
0.25358048
0.46178118
0.57741153
0.56691955
0.46154031
0.31815507
0.18749446
0.098828378
0.04804585
0.021833081
0.0092479992
0.0035899836
0.0012416406
0.00038486747
0.0001803379
0.00043477642
0.0031159569
0.092642365
0.099340002
0.09532782
0.094390971
0.095977256
0.10108416
0.11135574
0.12920336
0.16125437
0.21398818
0.25570246
0.22022904
0.16727202
0.25358714
0.46170721
0.57721916
0.56664437
0.46125213
0.31791079
0.18733251
0.098737535
0.048000388
0.021812193
0.0092391307
0.0035865465
0.0012404571
0.00038450613
0.0001801806
0.00043441808
0.0031133962
0.092637824
0.099331956
0.095313162
0.09436777
0.095936237
0.10100042
0.11119971
0.12896404
0.16094659
0.21365389
0.25543194
0.220067
0.16720586
0.25359676
0.46163761
0.5770323
0.56637489
0.46096891
0.3176702
0.18717288
0.098647957
0.047955561
0.021791599
0.0092303891
0.0035831594
0.0012392909
0.00038414988
0.0001800248
0.00043406176
0.0031108498
0.092633423
0.099324202
0.095298722
0.094344756
0.095895517
0.10091738
0.1110449
0.12872628
0.16064068
0.21332201
0.25516399
0.21990647
0.16714146
0.25360934
0.46157242
0.57685102
0.56611117
0.46069067
0.31743327
0.18701548
0.098559558
0.047911294
0.021771253
0.009221748
0.0035798096
0.0012381369
0.00038379685
0.00017986934
0.00043370425
0.0031082945
0.09262916
0.099316736
0.095284505
0.094321924
0.095855087
0.10083502
0.11089131
0.12849009
0.16033668
0.21299253
0.25489862
0.21974742
0.16707881
0.25362488
0.46151163
0.57667529
0.56585319
0.4604174
0.31720001
0.18686037
0.098472424
0.047867669
0.021751208
0.0092132389
0.0035765125
0.0012370013
0.0003834493
0.00017971551
0.00043334902
0.0031057552
0.092625035
0.099309559
0.095270515
0.094299272
0.09581494
0.10075333
0.11073892
0.12825548
0.16003466
0.21266541
0.25463582
0.21958982
0.16701789
0.25364339
0.46145533
0.57650521
0.56560098
0.46014898
0.3169702
0.18670725
0.098386287
0.047824488
0.021731345
0.0092047984
0.0035732388
0.001235873
0.00038310352
0.00017956196
0.00043299358
0.0031032139
0.092621045
0.099302675
0.095256744
0.094276794
0.095775065
0.10067229
0.11058772
0.12802248
0.15973465
0.21234067
0.25437556
0.21943364
0.16695869
0.25366486
0.46140343
0.57634071
0.56535455
0.4598856
0.31674412
0.18655646
0.098301431
0.047781951
0.021711783
0.0091964882
0.0035700167
0.0012347625
0.000382763
0.0001794099
0.00043264001
0.0031006857
0.092617189
0.099296083
0.095243184
0.094254487
0.095735457
0.10059189
0.11043771
0.12779109
0.15943658
0.21201847
0.25411782
0.21927884
0.16690121
0.25368927
0.46135591
0.57618179
0.56511394
0.45962725
0.31652175
0.18640793
0.098217757
0.047739975
0.021692467
0.0091882777
0.0035668315
0.0012336641
0.00038242564
0.00017925813
0.00043228514
0.003098148
0.092613465
0.09928978
0.095229825
0.094232346
0.095696107
0.1005121
0.11028887
0.12756133
0.15914047
0.21169887
0.25386255
0.2191254
0.16684544
0.25371658
0.46131271
0.5760284
0.5648791
0.45937397
0.31630315
0.18626177
0.098135409
0.047698676
0.02167347
0.0091802075
0.0035637024
0.0012325854
0.00038209416
0.00017910819
0.00043193298
0.0030956292
0.092609872
0.099283765
0.095216648
0.094210369
0.095657008
0.10043292
0.11014121
0.12733322
0.15884632
0.21138189
0.25360973
0.21897329
0.16679137
0.25374683
0.46127392
0.5758806
0.56465005
0.45912564
0.31608811
0.18611769
0.098054111
0.047657849
0.021654669
0.0091722119
0.0035605992
0.0012315147
0.0003817647
0.00017895861
0.00043158078
0.0030931097
0.092606408
0.099278034
0.095203638
0.094188552
0.095618155
0.10035434
0.10999471
0.12710677
0.15855418
0.21106751
0.25335934
0.21882247
0.16673896
0.25378
0.46123945
0.57573833
0.56442679
0.45888239
0.31587688
0.18597602
0.097974143
0.047617694
0.021636184
0.0091643536
0.0035575504
0.001230463
0.0003814408
0.00017881057
0.00043123037
0.0030906029
0.092603071
0.099272585
0.095190833
0.094166893
0.095579542
0.10027634
0.10984937
0.12688199
0.15826406
0.21075572
0.25311134
0.2186729
0.1666882
0.25381607
0.46120934
0.5756016
0.56420927
0.45864411
0.3156693
0.18583655
0.097895335
0.04757809
0.02161794
0.0091565933
0.003554538
0.0012294232
0.00038112
0.00017866272
0.00043087831
0.0030880836
0.09259986
0.099267414
0.095178232
0.094145393
0.095541165
0.10019892
0.1097052
0.12665891
0.15797597
0.21044651
0.25286571
0.21852455
0.16663908
0.25385501
0.46118349
0.5754703
0.56399742
0.45841078
0.3154654
0.18569941
0.097817824
0.047539151
0.021600011
0.0091489719
0.0035515813
0.001228403
0.00038080506
0.00017851669
0.00043052889
0.0030855829
0.092596772
0.099262517
0.09516583
0.094124049
0.095503022
0.10012207
0.10956219
0.12643753
0.15768992
0.21013984
0.25262242
0.21837736
0.16659156
0.25389682
0.46116195
0.57534447
0.5637912
0.45818223
0.3152649
0.18556423
0.097741289
0.047500645
0.02158226
0.0091414174
0.0035486475
0.0012273898
0.00038049188
0.00017837097
0.00043017942
0.0030830815
0.092593805
0.099257891
0.095153625
0.094102862
0.09546511
0.10004579
0.10942034
0.12621786
0.15740591
0.2098357
0.2523814
0.21823129
0.16654563
0.25394146
0.46114459
0.57522397
0.56359058
0.45795863
0.31506812
0.18543141
0.097666074
0.04746281
0.021564825
0.0091340011
0.0035457688
0.0012263958
0.00038018435
0.00017822682
0.0004298318
0.003080593
0.092590958
0.099253533
0.095141615
0.094081832
0.095427429
0.099970072
0.10927967
0.12599993
0.15712393
0.20953407
0.2521426
0.21808629
0.16650127
0.25398891
0.46113141
0.57510879
0.5633955
0.45773983
0.3148749
0.18530075
0.097591995
0.047425516
0.021547628
0.0091266818
0.0035429261
0.0012254137
0.0003798799
0.00017808285
0.00042948245
0.0030780915
0.092588229
0.099249438
0.095129798
0.094060956
0.095389978
0.099894924
0.10914017
0.12578373
0.15684401
0.20923491
0.25190598
0.21794231
0.16645844
0.25403913
0.46112228
0.5749988
0.56320584
0.4575258
0.31468524
0.18517236
0.09751919
0.04738888
0.021530745
0.0091195014
0.0035401393
0.0012244513
0.00037958136
0.00017794067
0.00042913561
0.0030756077
0.092585615
0.099245602
0.095118172
0.094040235
0.095352761
0.099820344
0.10900185
0.12556929
0.15656612
0.20893818
0.25167145
0.21779929
0.16641715
0.25409213
0.46111728
0.57489403
0.56302158
0.45731633
0.3144988
0.18504582
0.097447305
0.04735265
0.021514029
0.0091123836
0.0035373742
0.0012234956
0.00037928448
0.00017779874
0.00042878858
0.0030731221
0.092583115
0.099242022
0.095106734
0.094019672
0.09531578
0.099746338
0.10886473
0.12535661
0.15629024
0.20864382
0.25143893
0.21765717
0.16637737
0.25414787
0.46111626
0.57479436
0.56284268
0.4571116
0.31431595
0.18492154
0.097376678
0.04731706
0.021497613
0.0091053978
0.0035346616
0.0012225583
0.00037899306
0.00017765836
0.00042844341
0.0030706497
0.092580726
0.099238691
0.095095485
0.093999267
0.09527904
0.099672912
0.1087288
0.12514572
0.15601638
0.2083518
0.25120838
0.21751591
0.16633909
0.25420635
0.46111925
0.57469978
0.56266912
0.45691151
0.31413651
0.18479932
0.097307127
0.047281976
0.021481419
0.009098501
0.003531982
0.0012216318
0.00037870443
0.00017751812
0.00042809658
0.0030681648
0.092578448
0.099235607
0.095084423
0.093979025
0.095242547
0.099600073
0.10859408
0.12493661
0.1557445
0.20806206
0.25097971
0.21737545
0.16630228
0.25426754
0.46112614
0.57461017
0.56250076
0.45671603
0.31396054
0.18467932
0.097238818
0.04724753
0.021465526
0.0090917372
0.0035293556
0.001220724
0.00037842136
0.00017737956
0.00042775208
0.0030656963
0.092576277
0.099232766
0.095073549
0.093958949
0.095206309
0.099527832
0.10846059
0.12472929
0.15547461
0.20777456
0.25075285
0.21723572
0.16626693
0.25433145
0.46113704
0.57452559
0.56233758
0.45652493
0.31378766
0.18456109
0.097171383
0.04721347
0.021449791
0.0090850323
0.0035267494
0.0012198224
0.00037813986
0.00017724128
0.0004274076
0.0030632276
0.092574212
0.099230162
0.095062863
0.093939044
0.095170333
0.099456204
0.10832835
0.12452379
0.15520668
0.20748921
0.2505277
0.21709667
0.16623301
0.25439807
0.4611518
0.57444589
0.56217953
0.45633839
0.31361827
0.18444508
0.097105203
0.047180052
0.021434361
0.0090784614
0.0035241967
0.0012189395
0.0003778639
0.00017710456
0.00042706497
0.0030607717
0.09257225
0.099227792
0.095052366
0.093919315
0.09513463
0.099385201
0.10819736
0.1243201
0.1549407
0.20720598
0.25030417
0.21695824
0.16620051
0.25446736
0.46117042
0.57437106
0.56202655
0.45615628
0.31345216
0.18433108
0.097040077
0.047147136
0.021419151
0.0090719807
0.0035216778
0.0012180678
0.00037759086
0.00017696803
0.00042672078
0.0030583044
0.09257039
0.099225651
0.095042059
0.093899767
0.095099212
0.099314841
0.10806764
0.12411824
0.15467665
0.20692479
0.25008218
0.21682035
0.16616942
0.25453931
0.4611928
0.57430097
0.56187855
0.45597861
0.31328941
0.18421924
0.096976176
0.047114855
0.021404246
0.0090656345
0.003519213
0.0012172152
0.00037732353
0.00017683326
0.00042637912
0.0030558546
0.092568629
0.099223734
0.095031944
0.093880409
0.095064089
0.099245139
0.10793921
0.12391823
0.1544145
0.20664559
0.24986163
0.21668296
0.16613971
0.25461396
0.46121906
0.57423571
0.56173551
0.45580513
0.31312964
0.18410911
0.096913127
0.047082952
0.021389495
0.0090593472
0.0035167686
0.001216369
0.00037705786
0.00017669885
0.00042603767
0.0030534062
0.092566964
0.099222038
0.095022023
0.093861245
0.095029274
0.099176115
0.1078121
0.12372008
0.15415425
0.20636831
0.24964243
0.21654598
0.16611136
0.25469127
0.46124909
0.57417518
0.5615974
0.45563604
0.31297324
0.18400115
0.096851299
0.047051676
0.021375042
0.0090531905
0.0035143764
0.001215541
0.00037679757
0.00017656592
0.0004256979
0.0030509694
0.092565392
0.099220556
0.095012297
0.093842285
0.094994783
0.09910779
0.10768633
0.1235238
0.15389588
0.20609291
0.24942451
0.21640936
0.16608435
0.25477127
0.46128297
0.57411942
0.56146416
0.45547113
0.31281991
0.18389503
0.096790434
0.047020853
0.021360788
0.0090471144
0.0035120142
0.0012147229
0.00037653982
0.00017643302
0.00042535622
0.0030485183
0.092563913
0.099219286
0.095002768
0.093823536
0.094960628
0.099040183
0.10756191
0.12332941
0.15363938
0.2058193
0.24920777
0.21627302
0.16605865
0.25485393
0.46132061
0.57406831
0.56133568
0.45531037
0.31266967
0.1837909
0.096730688
0.046990611
0.02134681
0.0090411613
0.0035097015
0.0012139224
0.00037628731
0.00017630175
0.00042501692
0.0030460841
0.092562523
0.099218222
0.094993441
0.093805006
0.094926825
0.098973317
0.10743887
0.12313693
0.15338473
0.20554745
0.2489921
0.21613689
0.16603424
0.25493928
0.46136213
0.57402193
0.56121194
0.4551535
0.31252212
0.18368825
0.096671648
0.046960666
0.021332949
0.0090352495
0.0035074023
0.0012131257
0.00037603574
0.00017617067
0.00042467773
0.0030436503
0.092561219
0.099217359
0.094984317
0.093786704
0.09489339
0.098907214
0.10731724
0.12294636
0.15313192
0.20527729
0.2487774
0.21600092
0.16601111
0.25502727
0.46140739
0.57398019
0.56109298
0.45500084
0.31237776
0.18358764
0.096613756
0.046931311
0.021319367
0.0090294603
0.003505152
0.0012123462
0.00037578926
0.00017604103
0.00042434029
0.0030412288
0.092559999
0.099216693
0.0949754
0.093768637
0.094860337
0.098841898
0.10719704
0.12275775
0.15288095
0.20500876
0.24856359
0.21586502
0.16598924
0.25511794
0.46145644
0.57394312
0.56097879
0.45485225
0.31223637
0.1834888
0.096556775
0.046902378
0.021305968
0.0090237441
0.0035029285
0.0012115753
0.00037554494
0.00017591136
0.00042400099
0.0030387935
0.09255886
0.099216219
0.094966694
0.093750814
0.09482768
0.098777393
0.10707831
0.12257109
0.15263182
0.20474184
0.24835058
0.21572915
0.16596861
0.25521123
0.46150918
0.57391064
0.56086931
0.45470779
0.31209808
0.18339196
0.096500934
0.046874038
0.021292852
0.0090181537
0.0035007556
0.0012108224
0.00037530601
0.00017578341
0.00042366435
0.0030363771
0.092557799
0.099215931
0.0949582
0.093733243
0.094795436
0.098713722
0.10696106
0.12238642
0.15238453
0.20447647
0.24813828
0.21559323
0.16594919
0.25530722
0.46156581
0.5738829
0.56076457
0.45456722
0.31196248
0.18329659
0.096445782
0.046845984
0.021279845
0.0090126005
0.0034985942
0.0012100725
0.00037506776
0.00017565554
0.00042332759
0.0030339595
0.092556812
0.099215823
0.094949923
0.093715931
0.094763619
0.098650907
0.10684531
0.12220376
0.1521391
0.20421261
0.24792662
0.21545719
0.16593096
0.25540588
0.4616262
0.5738598
0.5606646
0.45443084
0.31183005
0.18320327
0.09639178
0.046818521
0.021267118
0.0090071706
0.003496482
0.00120934
0.00037483461
0.00017552915
0.00042299273
0.0030315552
0.092555897
0.099215891
0.094941866
0.093698888
0.094732244
0.098588971
0.10673111
0.12202315
0.15189552
0.20395023
0.24771551
0.21532098
0.1659139
0.25550724
0.46169045
0.57384144
0.56056939
0.45429848
0.31170054
0.18311166
0.096338657
0.046791461
0.021254563
0.0090018088
0.0034943946
0.0012086153
0.00037460337
0.00017540255
0.00042265548
0.0030291332
0.092555051
0.09921613
0.09493403
0.09368212
0.094701325
0.098527935
0.10661847
0.1218446
0.15165383
0.20368932
0.24750487
0.21518453
0.16589801
0.25561125
0.46175849
0.57382772
0.56047888
0.45417018
0.31157403
0.18302198
0.096286631
0.046764974
0.021242283
0.0089965692
0.0034923564
0.0012079081
0.00037437737
0.00017527761
0.00042232079
0.0030267294
0.09255427
0.099216533
0.094926418
0.093665634
0.094670874
0.098467817
0.10650741
0.12166815
0.15141404
0.20342985
0.24729464
0.21504779
0.16588325
0.255718
0.46183051
0.57381884
0.56039311
0.45404566
0.31145005
0.18293363
0.096235194
0.046738713
0.02123008
0.008991352
0.0034903235
0.0012072017
0.00037415138
0.00017515261
0.00042198593
0.0030243242
0.09255355
0.099217095
0.094919033
0.093649438
0.094640904
0.098408637
0.10639797
0.12149383
0.15117618
0.20317182
0.24708473
0.21491069
0.16586961
0.25582744
0.46190637
0.5738147
0.56031218
0.45392535
0.31132924
0.18284731
0.096184903
0.046713041
0.021218157
0.008986258
0.0034883399
0.0012065126
0.00037393053
0.00017502918
0.00042165336
0.0030219351
0.09255289
0.09921781
0.094911876
0.093633536
0.094611426
0.098350412
0.10629017
0.12132166
0.15094028
0.20291522
0.24687506
0.21477318
0.16585709
0.25593959
0.46198617
0.57381542
0.56023614
0.45380917
0.31121141
0.18276274
0.096135499
0.046687774
0.021206406
0.0089812312
0.0034863804
0.0012058312
0.00037371151
0.00017490554
0.00042131847
0.0030195289
0.092552286
0.099218672
0.094904947
0.093617935
0.09458245
0.098293157
0.10618402
0.1211517
0.15070639
0.20266006
0.2466656
0.21463521
0.16584566
0.25605443
0.46206983
0.57382094
0.56016497
0.45369716
0.31109668
0.18268016
0.096087226
0.046663097
0.021194938
0.0089763306
0.0034844717
0.0012051678
0.00037349789
0.0001747836
0.00042098609
0.0030171405
0.092551734
0.099219676
0.094898249
0.093602639
0.094553986
0.098236887
0.10607954
0.12098395
0.15047457
0.20240634
0.2464563
0.21449672
0.16583531
0.25617203
0.4621576
0.5738315
0.56009874
0.45358907
0.31098451
0.18259889
0.096039526
0.046638631
0.021183538
0.0089714476
0.0034825663
0.0012045044
0.00037328401
0.00017466139
0.00042065299
0.0030147466
0.092551232
0.099220816
0.094891781
0.093587657
0.094526041
0.098181612
0.10597677
0.12081847
0.15024485
0.20215409
0.24624709
0.21435765
0.16582601
0.25629237
0.46224933
0.57384701
0.56003756
0.45348531
0.31087556
0.18251966
0.095992952
0.046614737
0.021172407
0.008966682
0.0034807076
0.0012038574
0.00037307492
0.00017454055
0.00042032161
0.0030123649
0.092550777
0.099222087
0.094885545
0.093572993
0.094498621
0.098127343
0.10587571
0.12065528
0.15001729
0.20190335
0.24603791
0.21421795
0.16581777
0.25641545
0.46234509
0.57386759
0.5599815
0.45338584
0.31076963
0.18244217
0.095947245
0.046591231
0.021161436
0.0089619769
0.0034788698
0.0012032167
0.00037286724
0.00017441935
0.00041998768
0.0030099645
0.092550365
0.099223483
0.094879541
0.093558649
0.094471731
0.098074085
0.10577637
0.12049442
0.14979196
0.20165413
0.24582871
0.2140776
0.16581059
0.25654123
0.46244476
0.57389312
0.55993057
0.45329082
0.310667
0.1823668
0.095902741
0.046568351
0.021150764
0.008957405
0.0034770854
0.0012025949
0.00037266527
0.00017430013
0.00041965721
0.0030075888
0.092549993
0.099225
0.094873768
0.093544624
0.094445374
0.098021842
0.10567877
0.12033592
0.14956891
0.20140648
0.24561944
0.21393655
0.16580445
0.25666981
0.46254855
0.57392384
0.55988487
0.45320005
0.31056719
0.18229291
0.095858899
0.046545725
0.02114018
0.0089528583
0.003475307
0.001201974
0.00037246329
0.00017418087
0.00041932673
0.0030052128
0.092549659
0.099226631
0.094868224
0.093530919
0.094419555
0.097970617
0.10558291
0.12017981
0.14934822
0.20116044
0.24541008
0.21379476
0.16579936
0.25680115
0.46265632
0.57395965
0.55984452
0.45311399
0.31047095
0.18222129
0.095816335
0.046523755
0.021129905
0.0089484476
0.0034735828
0.0012013721
0.00037226692
0.00017406329