/*--------------------------------*- C++ -*----------------------------------*\
| =========                 |                                                 |
| \\      /  F ield         | OpenFOAM: The Open Source CFD Toolbox           |
|  \\    /   O peration     | Version:  v2012                                 |
|   \\  /    A nd           | Website:  www.openfoam.com                      |
|    \\/     M anipulation  |                                                 |
\*---------------------------------------------------------------------------*/
FoamFile
{
    version     2.0;
    format      ascii;
    class       volScalarField;
    location    "200";
    object      Ma;
}
// * * * * * * * * * * * * * * * * * * * * * * * * * * * * * * * * * * * * * //

dimensions      [0 0 0 0 0 0 0];


internalField   nonuniform List<scalar> 
24000
(
0.036871684
0.037359703
0.037666438
0.0378155
0.038018313
0.038371177
0.038828337
0.038949801
0.037588283
0.034324595
0.031235
0.029085779
0.027212603
0.025170204
0.022865995
0.020364914
0.017781943
0.015256044
0.01288641
0.01072927
0.0088116053
0.0071377967
0.0056951005
0.004462331
0.0034153618
0.0025302023
0.0017845608
0.0011585239
0.00063470819
0.0001981239
0.036864952
0.037353463
0.037663374
0.037817095
0.038027055
0.038389415
0.038858149
0.038994132
0.037648372
0.03441478
0.031342131
0.029203776
0.027344054
0.02532056
0.023038279
0.020561498
0.018003943
0.015505512
0.013165438
0.011037066
0.0091418552
0.0074781076
0.006029286
0.0047738455
0.0036902423
0.0027586329
0.0019611642
0.0012818376
0.00070630669
0.00022170394
0.036862823
0.03735228
0.037661717
0.037814066
0.038021049
0.038377781
0.038837943
0.038963523
0.037610256
0.034370653
0.031291313
0.029151314
0.0272948
0.025276576
0.02299925
0.020525566
0.017966923
0.015461695
0.013109175
0.010964275
0.0090520042
0.0073751211
0.0059201491
0.004666526
0.0035919118
0.0026746907
0.0018949764
0.0012349271
0.00067874238
0.00021252178
0.036859368
0.037349161
0.037658486
0.037810315
0.038016309
0.038371389
0.038829172
0.038953557
0.037602188
0.034363472
0.031285
0.029147343
0.027293759
0.02527907
0.023004716
0.020533041
0.017975227
0.015470317
0.013119044
0.010976804
0.0090681447
0.0073946807
0.0059418961
0.0046887044
0.0036127817
0.0026928628
0.0019095257
0.0012453709
0.00068495143
0.00021461716
0.036855701
0.037345548
0.037654621
0.037805846
0.038010884
0.038364555
0.038820346
0.038944131
0.037594819
0.034355531
0.031275456
0.029137648
0.027284187
0.025269522
0.022995228
0.020523713
0.017966301
0.015462106
0.013111133
0.010968855
0.00906001
0.0073864671
0.0059338965
0.0046812769
0.0036062456
0.0026874433
0.001905342
0.0012424499
0.00068325217
0.00021405505
0.036851693
0.037341441
0.037650346
0.037801161
0.03800561
0.038358334
0.038812695
0.038936468
0.037589481
0.034349384
0.031267524
0.029129589
0.027276236
0.025261497
0.022987228
0.020515936
0.017958992
0.015455461
0.013105281
0.010963888
0.00905597
0.0073833124
0.0059315241
0.0046795522
0.0036050322
0.0026866207
0.0019048118
0.0012421354
0.0006830953
0.00021401141
0.036847421
0.037337006
0.037645818
0.037796357
0.038000394
0.03835232
0.03880544
0.038929284
0.037584661
0.03434363
0.031259776
0.029121539
0.027268068
0.025253024
0.022978605
0.020507404
0.01795086
0.015447965
0.013098558
0.010957998
0.009050913
0.0073790476
0.0059279931
0.0046766907
0.0036027751
0.0026849039
0.001903573
0.0012413155
0.00068263847
0.0002138664
0.036842932
0.037332334
0.037641132
0.037791495
0.037995226
0.038346442
0.038798399
0.038922343
0.037580134
0.034338241
0.031252348
0.029113774
0.027260162
0.0252448
0.022970221
0.020499107
0.017942961
0.015440708
0.013092086
0.01095238
0.0090461521
0.0073750964
0.0059247785
0.0046741305
0.003600788
0.0026834138
0.001902511
0.0012406199
0.00068225451
0.00021374569
0.036838274
0.03732749
0.037636339
0.037786593
0.03799007
0.038340621
0.038791436
0.038915497
0.0375757
0.034333071
0.031245146
0.029106212
0.027252446
0.025236762
0.022962025
0.020491
0.017935247
0.015433622
0.013085768
0.010946892
0.0090414947
0.0073712238
0.005921621
0.0046716102
0.0035988277
0.0026819412
0.0019014597
0.0012399303
0.0006818733
0.00021362563
0.036833485
0.037322525
0.03763147
0.037781659
0.037984911
0.038334816
0.038784495
0.03890868
0.037571311
0.034328069
0.031238146
0.029098841
0.027244919
0.025228928
0.022954049
0.020483123
0.017927764
0.015426756
0.01307965
0.010941579
0.0090369884
0.0073674778
0.0059185676
0.0046691738
0.0035969335
0.0026805187
0.0019004447
0.0012392648
0.00068150565
0.00021350992
0.036828598
0.037317474
0.037626544
0.037776693
0.037979739
0.038329005
0.038777554
0.038901871
0.037566925
0.034323195
0.031231315
0.029091632
0.027237528
0.025221274
0.022946267
0.020475451
0.017920485
0.015420081
0.013073703
0.010936413
0.0090326011
0.0073638263
0.0059155871
0.0046667924
0.00359508
0.0026791255
0.00189945
0.0012386124
0.00068114516
0.00021339648
0.036823635
0.037312359
0.037621573
0.0377717
0.037974551
0.038323178
0.038770604
0.038895054
0.037562526
0.034318419
0.031224623
0.029084563
0.027230311
0.025213779
0.022938657
0.020467959
0.017913386
0.015413578
0.01306791
0.010931377
0.0090283202
0.0073602578
0.0059126695
0.0046644573
0.0035932595
0.0026777553
0.0018984706
0.0012379696
0.00068078985
0.00021328468
0.036818615
0.037307195
0.037616564
0.037766681
0.037969346
0.038317336
0.03876364
0.038888221
0.03755811
0.034313727
0.031218049
0.029077616
0.02722322
0.025206421
0.022931196
0.020460625
0.017906444
0.015407224
0.013062252
0.010926459
0.0090241381
0.0073567695
0.0059098149
0.0046621703
0.0035914748
0.0026764109
0.001897509
0.0012373381
0.00068044078
0.00021317484
0.036813553
0.037301994
0.037611524
0.037761641
0.037964125
0.03831148
0.038756663
0.038881366
0.037553677
0.034309117
0.031211575
0.029070775
0.027216239
0.025199182
0.022923864
0.020453427
0.017899642
0.015401005
0.013056718
0.010921652
0.0090200509
0.0073533597
0.0059070233
0.0046599326
0.0035897275
0.0026750939
0.0018965666
0.0012367191
0.00068009857
0.00021306718
0.036808459
0.037296764
0.037606458
0.037756581
0.037958888
0.038305608
0.038749672
0.038874492
0.037549229
0.034304557
0.031205188
0.029064027
0.027209354
0.025192047
0.022916644
0.020446348
0.017892959
0.015394902
0.013051295
0.010916945
0.0090160527
0.0073500271
0.0059042971
0.0046577488
0.0035880234
0.0026738101
0.0018956484
0.0012361163
0.00067976544
0.00021296243
0.036803341
0.037291513
0.037601367
0.037751506
0.037953636
0.038299722
0.038742668
0.038867595
0.03754475
0.034300037
0.031198878
0.02905736
0.027202552
0.025185
0.022909518
0.020439369
0.017886378
0.015388899
0.013045966
0.010912324
0.0090121312
0.0073467612
0.0059016275
0.004655612
0.0035863571
0.0026725557
0.0018947517
0.001235528
0.00067944047
0.00021286029
0.036798202
0.037286244
0.037596259
0.037746415
0.037948372
0.038293823
0.038735653
0.03886067
0.037540245
0.03429555
0.031192632
0.029050764
0.027195823
0.025178031
0.022902475
0.020432476
0.017879885
0.015382981
0.013040716
0.010907777
0.009008275
0.0073435526
0.0058990073
0.0046535166
0.0035847245
0.0026713276
0.0018938744
0.0012349526
0.00067912277
0.00021276046
0.03679305
0.037280963
0.037591138
0.037741313
0.037943094
0.038287912
0.038728618
0.038853727
0.037535714
0.034291094
0.031186445
0.029044235
0.027189163
0.025171132
0.022895506
0.020425662
0.017873471
0.015377139
0.013035536
0.010903291
0.0090044724
0.0073403892
0.0058964243
0.0046514513
0.0035831156
0.0026701175
0.0018930102
0.0012343858
0.00067880989
0.00021266216
0.036787889
0.03727567
0.037586004
0.037736193
0.037937806
0.038281992
0.038721576
0.038846766
0.037531172
0.034286686
0.031180314
0.029037769
0.027182566
0.025164297
0.022888604
0.020418916
0.017867125
0.015371363
0.013030418
0.010898861
0.0090007189
0.007337268
0.0058938769
0.0046494153
0.0035815302
0.0026689255
0.0018921591
0.0012338279
0.00067850192
0.00021256542
0.036782723
0.037270369
0.037580859
0.037731063
0.037932507
0.038276062
0.038714529
0.038839785
0.037526606
0.034282305
0.031174241
0.029031361
0.027176026
0.02515752
0.022881761
0.020412233
0.017860842
0.015365646
0.013025355
0.01089448
0.0089970068
0.0073341813
0.0058913576
0.0046474016
0.0035799619
0.0026677463
0.001891317
0.0012332759
0.00067819723
0.00021246971
0.036777551
0.037265061
0.037575704
0.037725922
0.037927197
0.038270125
0.03870748
0.03883279
0.037522018
0.034277948
0.031168221
0.029025012
0.02716954
0.025150797
0.022874974
0.020405604
0.017854613
0.015359982
0.01302034
0.010890144
0.008993335
0.00733113
0.0058888685
0.004645413
0.0035784138
0.0026665826
0.0018904863
0.0012327314
0.0006778967
0.00021237532
0.036772377
0.037259746
0.03757054
0.03772077
0.037921879
0.038264181
0.038700429
0.038825784
0.037517411
0.034273614
0.031162248
0.029018717
0.027163107
0.025144126
0.022868237
0.020399028
0.017848435
0.015354367
0.013015371
0.010885847
0.008989698
0.0073281081
0.0058864037
0.0046434441
0.0035768813
0.0026654309
0.0018896643
0.0012321926
0.00067759938
0.00021228194
0.036767199
0.037254425
0.037565367
0.03771561
0.037916552
0.038258231
0.038693375
0.038818766
0.037512791
0.034269308
0.031156323
0.029012473
0.027156722
0.025137503
0.022861547
0.020392499
0.017842304
0.015348797
0.013010445
0.01088159
0.0089860956
0.0073251165
0.0058839649
0.0046414968
0.0035753664
0.0026642927
0.0018888521
0.0012316604
0.00067730577
0.00021218974
0.036762013
0.037249095
0.037560185
0.037710441
0.037911217
0.038252278
0.038686324
0.038811738
0.037508167
0.034265049
0.031150451
0.029006281
0.027150385
0.025130924
0.022854901
0.020386014
0.017836216
0.015343268
0.013005555
0.010877366
0.0089825218
0.0073221487
0.0058815453
0.0046395648
0.0035738631
0.0026631633
0.0018880462
0.0012311323
0.00067701437
0.00021209823
0.036756822
0.037243757
0.037554995
0.037705264
0.037905874
0.038246321
0.03867928
0.038804707
0.037503527
0.034260818
0.031144626
0.029000138
0.027144094
0.025124389
0.022848295
0.020379568
0.017830167
0.015337776
0.013000701
0.010873174
0.0089789783
0.0073192082
0.0058791497
0.0046376533
0.0035723766
0.002662047
0.0018872499
0.0012306106
0.00067672656
0.00021200786
0.036751628
0.037238412
0.037549797
0.037700079
0.037900524
0.038240362
0.038672243
0.038797675
0.037498875
0.034256616
0.031138847
0.028994048
0.027137846
0.025117894
0.022841729
0.020373161
0.017824154
0.015332318
0.012995878
0.01086901
0.0089754578
0.0073162869
0.00587677
0.0046357546
0.0035709003
0.0026609384
0.0018864592
0.0012300927
0.00067644087
0.00021191815
0.036746433
0.037233062
0.03754459
0.037694885
0.037895166
0.038234403
0.038665216
0.03879064
0.037494215
0.034252442
0.031133115
0.028988008
0.027131642
0.025111437
0.022835199
0.020366789
0.017818176
0.015326893
0.012991085
0.010864873
0.0089719621
0.0073133877
0.0058744095
0.0046338721
0.0035694373
0.0026598404
0.0018856763
0.00122958
0.00067615809
0.00021182937
0.036741234
0.037227704
0.037539374
0.037689684
0.037889802
0.038228443
0.038658202
0.03878361
0.037489559
0.034248306
0.031127436
0.028982016
0.02712548
0.025105019
0.022828704
0.020360451
0.017812229
0.015321496
0.012986318
0.010860759
0.0089684855
0.007310504
0.0058720613
0.0046319992
0.0035679815
0.0026587476
0.0018848971
0.0012290697
0.00067587661
0.00021174099
0.036736031
0.037222339
0.03753415
0.037684475
0.037884426
0.038222482
0.038651201
0.038776587
0.037484902
0.034244225
0.031121811
0.028976073
0.027119362
0.025098637
0.022822242
0.020354144
0.017806311
0.015316127
0.012981576
0.010856669
0.0089650312
0.0073076409
0.0058697314
0.0046301421
0.0035665388
0.0026576652
0.0018841255
0.0012285645
0.00067559798
0.00021165351
0.036730823
0.037216959
0.037528916
0.037679257
0.037879044
0.038216521
0.038644214
0.03876957
0.03748024
0.034240179
0.031116234
0.028970177
0.027113286
0.02509229
0.022815813
0.020347867
0.017800421
0.015310782
0.012976855
0.010852596
0.0089615909
0.007304789
0.0058674106
0.0046282922
0.0035651018
0.0026565871
0.0018833572
0.0012280615
0.00067532058
0.00021156642
0.03672561
0.037211567
0.037523673
0.037674032
0.037873657
0.038210562
0.038637242
0.038762558
0.037475575
0.034236168
0.031110706
0.028964329
0.027107251
0.025085978
0.022809416
0.020341618
0.017794556
0.015305459
0.012972154
0.01084854
0.0089581651
0.0073019498
0.0058651006
0.0046264516
0.0035636724
0.0026555149
0.0018825931
0.0012275614
0.00067504478
0.00021147983
0.036720391
0.037206165
0.03751842
0.037668798
0.037868264
0.038204606
0.038630279
0.038755559
0.037470912
0.034232195
0.031105233
0.028958527
0.027101255
0.025079698
0.022803048
0.020335395
0.017788713
0.015300155
0.012967467
0.010844495
0.0089547469
0.007299115
0.0058627929
0.0046246116
0.0035622428
0.0026544423
0.0018818285
0.0012270607
0.00067476867
0.00021139314
0.036715166
0.037200756
0.037513158
0.037663556
0.037862866
0.038198655
0.038623336
0.038748575
0.037466265
0.034228274
0.03109981
0.028952778
0.0270953
0.025073453
0.02279671
0.020329199
0.017782895
0.015294871
0.012962799
0.010840466
0.0089513432
0.0072962933
0.0058604966
0.0046227814
0.0035608211
0.0026533757
0.0018810684
0.001226563
0.00067449416
0.00021130694
0.036709933
0.037195336
0.037507886
0.037658306
0.037857464
0.038192708
0.038616412
0.038741602
0.037461616
0.03422441
0.031094438
0.028947077
0.027089385
0.02506724
0.0227904
0.020323028
0.017777098
0.015289606
0.012958145
0.010836448
0.0089479466
0.007293476
0.0058582028
0.0046209524
0.0035594001
0.0026523094
0.0018803083
0.0012260653
0.00067421967
0.00021122074
0.036704693
0.037189905
0.037502605
0.037653048
0.037852057
0.038186767
0.038609509
0.038734646
0.03745697
0.034220589
0.031089117
0.028941425
0.027083509
0.02506106
0.022784118
0.020316881
0.017771323
0.01528436
0.012953507
0.010832443
0.0089445613
0.0072906683
0.0058559172
0.0046191303
0.0035579844
0.0026512473
0.0018795512
0.0012255696
0.00067394625
0.00021113489
0.036699442
0.037184464
0.037497313
0.037647782
0.037846647
0.038180831
0.038602624
0.038727708
0.037452329
0.03421681
0.031083858
0.028935819
0.027077674
0.025054911
0.022777863
0.020310758
0.017765567
0.015279129
0.012948881
0.010828445
0.0089411798
0.0072878614
0.0058536301
0.0046173054
0.0035565656
0.0026501821
0.0018787915
0.001225072
0.00067367173
0.00021104866
0.036694178
0.037179011
0.037492012
0.037642508
0.037841232
0.038174901
0.038595758
0.038720787
0.037447699
0.034213077
0.03107865
0.028930264
0.027071878
0.025048794
0.022771635
0.020304659
0.017759833
0.015273917
0.012944271
0.010824462
0.0089378112
0.0072850659
0.005851353
0.0046154889
0.0035551535
0.002649122
0.0018780355
0.0012245768
0.00067339847
0.00021096282
0.036688905
0.037173547
0.037486701
0.037637226
0.037835811
0.038168977
0.038588914
0.038713879
0.037443082
0.034209409
0.031073493
0.028924762
0.027066123
0.025042709
0.022765435
0.020298584
0.017754119
0.015268722
0.012939674
0.010820489
0.0089344487
0.0072822738
0.0058490774
0.0046136726
0.0035537411
0.0026480613
0.0018772789
0.0012240812
0.000673125
0.00021087692
0.036683623
0.037168071
0.03748138
0.037631936
0.037830385
0.038163059
0.038582091
0.038706992
0.037438466
0.034205795
0.031068395
0.028919308
0.027060406
0.025036655
0.022759261
0.020292534
0.017748427
0.015263545
0.012935093
0.01081653
0.0089310996
0.0072794938
0.0058468124
0.0046118656
0.0035523362
0.0026470067
0.0018765268
0.0012235885
0.00067285317
0.00021079154
0.03667833
0.037162583
0.037476049
0.037626639
0.037824956
0.038157141
0.03857529
0.038700126
0.037433857
0.034202227
0.03106335
0.028913902
0.027054728
0.025030632
0.022753113
0.020286506
0.017742754
0.015258385
0.012930525
0.01081258
0.0089277555
0.0072767158
0.0058445473
0.004610057
0.0035509292
0.0026459497
0.0018757727
0.0012230944
0.00067258047
0.00021070587
0.036673026
0.037157084
0.037470704
0.037621334
0.037819524
0.03815123
0.03856851
0.038693274
0.037429253
0.034198706
0.031058355
0.028908543
0.027049088
0.02502464
0.022746992
0.020280503
0.017737101
0.015253243
0.012925974
0.010808646
0.0089244257
0.0072739511
0.0058422942
0.0046082589
0.0035495309
0.0026448997
0.0018750236
0.0012226035
0.00067230957
0.00021062075
0.036667711
0.037151572
0.03746535
0.037616021
0.037814088
0.038145325
0.038561751
0.038686442
0.037424665
0.034195238
0.031053413
0.028903231
0.027043486
0.025018678
0.022740896
0.020274521
0.017731467
0.015248116
0.012921434
0.010804718
0.0089211004
0.0072711883
0.0058400413
0.0046064601
0.0035481315
0.0026438485
0.0018742737
0.0012221121
0.00067203839
0.00021053555
0.036662383
0.037146049
0.037459982
0.037610701
0.037808649
0.038139426
0.038555014
0.03867963
0.037420086
0.03419184
0.031048534
0.02889797
0.027037922
0.025012747
0.022734825
0.020268563
0.017725854
0.015243007
0.012916911
0.010800806
0.0089177881
0.0072684372
0.0058377987
0.0046046701
0.0035467394
0.0026428031
0.0018735279
0.0012216235
0.00067176875
0.00021045083
0.036657037
0.037140513
0.037454602
0.037605375
0.037803206
0.038133533
0.038548297
0.038672839
0.037415516
0.034188482
0.031043708
0.028892759
0.027032398
0.025006846
0.02272878
0.020262627
0.01772026
0.015237914
0.012912399
0.010796902
0.0089144811
0.0072656884
0.0058355561
0.0046028786
0.0035453451
0.0026417553
0.0018727801
0.0012211334
0.00067149818
0.00021036581
0.036651676
0.03713496
0.037449215
0.037600041
0.03779776
0.038127646
0.038541599
0.03866606
0.037410961
0.034185161
0.031038935
0.028887596
0.027026916
0.025000979
0.022722761
0.020256714
0.017714686
0.015232841
0.012907906
0.010793016
0.0089111906
0.0072629551
0.0058333276
0.0046010995
0.003543961
0.0026407157
0.0018720382
0.0012206471
0.00067122978
0.00021028146
0.036646303
0.037129394
0.037443818
0.037594701
0.037792311
0.038121763
0.038534916
0.0386593
0.037406418
0.034181881
0.031034222
0.02888248
0.027021471
0.024995143
0.022716768
0.020250822
0.017709131
0.015227782
0.012903424
0.010789137
0.0089079046
0.007260224
0.0058310998
0.0045993201
0.0035425764
0.0026396753
0.0018712958
0.0012201606
0.00067096122
0.00021019706
0.036640919
0.037123816
0.037438413
0.037589354
0.037786858
0.038115886
0.038528246
0.038652559
0.037401902
0.034178657
0.03102956
0.028877416
0.027016063
0.024989337
0.0227108
0.020244952
0.017703594
0.01522274
0.012898957
0.010785272
0.0089046306
0.0072575036
0.0058288816
0.0045975491
0.0035411987
0.0026386405
0.0018705575
0.0012196767
0.00067069415
0.00021011314
0.036635521
0.037118227
0.037432999
0.037584
0.037781401
0.038110013
0.038521593
0.038645833
0.037397396
0.034175481
0.031024951
0.028872403
0.027010692
0.02498356
0.022704856
0.020239102
0.017698074
0.015217711
0.012894499
0.010781412
0.0089013592
0.0072547829
0.005826661
0.0045957746
0.0035398173
0.0026376021
0.0018698162
0.0012191908
0.00067042586
0.0002100288
0.036630111
0.037112626
0.037427576
0.037578639
0.037775941
0.038104143
0.038514957
0.038639123
0.037392901
0.034172343
0.031020402
0.028867438
0.027005359
0.024977813
0.022698936
0.020233273
0.017692574
0.0152127
0.012890058
0.010777569
0.0088981032
0.007252077
0.005824454
0.0045940121
0.0035384459
0.0026365717
0.0018690807
0.0012187087
0.00067015967
0.00020994513
0.036624687
0.037107013
0.037422145
0.037573271
0.037770477
0.038098277
0.038508336
0.038632431
0.03738842
0.034169243
0.031015913
0.028862521
0.027000066
0.024972095
0.022693041
0.020227465
0.017687091
0.015207703
0.012885626
0.010773732
0.0088948508
0.0072493724
0.005822247
0.0045922489
0.0035370735
0.0026355403
0.0018683446
0.0012182262
0.0006698933
0.0002098614
0.036619251
0.037101383
0.037416706
0.037567893
0.037765008
0.038092414
0.038501727
0.038625756
0.037383954
0.034166198
0.031011478
0.028857652
0.026994811
0.024966407
0.022687169
0.020221678
0.017681627
0.015202721
0.01288121
0.010769908
0.0088916102
0.0072466787
0.0058200499
0.0045904943
0.0035357084
0.0026345147
0.0018676128
0.0012177464
0.00066962848
0.00020977816
0.036613801
0.037095738
0.037411259
0.037562505
0.037759535
0.038086554
0.038495129
0.038619096
0.037379514
0.034163208
0.031007105
0.028852834
0.026989593
0.024960747
0.022681322
0.02021591
0.01767618
0.015197752
0.012876802
0.01076609
0.0088883718
0.0072439844
0.00581785
0.0045887359
0.0035343392
0.0026334853
0.0018668778
0.0012172645
0.00066936236
0.0002096945
0.036608339
0.037090081
0.037405804
0.037557107
0.037754058
0.038080695
0.038488546
0.038612448
0.037375083
0.034160258
0.03100279
0.028848068
0.026984414
0.024955118
0.0226755
0.020210166
0.017670752
0.015192802
0.012872411
0.010762288
0.0088851492
0.0072413047
0.0058156636
0.0045869893
0.0035329798
0.0026324637
0.0018661484
0.0012167863
0.00066909829
0.00020961146
0.036602863
0.037084415
0.037400341
0.037551704
0.037748577
0.038074838
0.038481976
0.038605816
0.037370665
0.034157349
0.03099853
0.028843352
0.026979274
0.024949519
0.022669703
0.020204442
0.017665341
0.015187865
0.012868031
0.010758492
0.0088819302
0.0072386263
0.005813477
0.0045852417
0.0035316192
0.0026314409
0.0018654183
0.0012163076
0.00066883394
0.00020952835
0.036597375
0.037078738
0.03739487
0.037546294
0.037743092
0.038068983
0.038475418
0.038599201
0.037366261
0.034154489
0.030994332
0.028838686
0.026974171
0.02494395
0.022663933
0.020198739
0.01765995
0.015182945
0.012863665
0.01075471
0.0088787236
0.0072359592
0.0058113006
0.004583503
0.0035302661
0.002630424
0.0018646924
0.0012158317
0.00066857118
0.00020944574
0.03659187
0.037073051
0.037389391
0.037540878
0.037737602
0.038063128
0.038468873
0.038592597
0.037361878
0.034151691
0.030990201
0.028834077
0.026969109
0.024938411
0.022658187
0.020193057
0.017654575
0.015178038
0.012859308
0.010750934
0.0088755192
0.0072332915
0.0058091216
0.0045817607
0.003528909
0.0026294034
0.0018639635
0.0012153537
0.00066830716
0.00020936271
0.036586351
0.037067353
0.037383905
0.037535455
0.037732107
0.038057273
0.038462339
0.038586009
0.037357518
0.034148936
0.030986127
0.02882952
0.026964089
0.024932902
0.022652468
0.020187397
0.01764922
0.015173149
0.012854969
0.010747173
0.0088723302
0.0072306384
0.0058069559
0.0045800299
0.0035275614
0.0026283903
0.0018632401
0.0012148793
0.00066804509
0.00020928028
0.03658082
0.037061644
0.037378412
0.037530026
0.037726608
0.038051415
0.038455816
0.038579436
0.037353168
0.034146223
0.030982121
0.028825013
0.026959108
0.024927423
0.022646773
0.020181758
0.017643883
0.015168273
0.012850638
0.010743419
0.0088691443
0.0072279864
0.0058047901
0.0045782984
0.003526213
0.0026273765
0.0018625162
0.0012144045
0.00066778289
0.00020919783
0.036575277
0.037055924
0.03737291
0.03752459
0.037721104
0.038045556
0.038449304
0.03857288
0.037348834
0.034143558
0.030978175
0.028820558
0.026954165
0.024921975
0.022641103
0.02017614
0.017638564
0.015163413
0.012846323
0.010739678
0.0088659706
0.0072253455
0.0058026342
0.0045765757
0.0035248719
0.0026263684
0.0018617965
0.0012139326
0.00066752226
0.00020911586
0.03656972
0.037050194
0.037367402
0.037519147
0.037715595
0.038039698
0.038442803
0.038566336
0.037344515
0.034140956
0.03097429
0.028816156
0.026949262
0.02491656
0.022635458
0.020170542
0.017633262
0.015158567
0.012842017
0.010735943
0.0088627997
0.0072227045
0.0058004763
0.0045748497
0.0035235273
0.0026253571
0.001861074
0.0012134587
0.00066726047
0.00020903352
0.036564152
0.037044453
0.037361885
0.037513698
0.037710081
0.038033839
0.038436311
0.038559804
0.03734022
0.034138402
0.030970473
0.02881181
0.026944402
0.024911179
0.02262984
0.020164968
0.017627981
0.01515374
0.012837729
0.010732226
0.0088596453
0.0072200791
0.0057983325
0.004573136
0.0035221928
0.0026243536
0.0018603574
0.0012129886
0.00066700077
0.00020895181
0.03655857
0.037038702
0.037356361
0.037508242
0.037704562
0.038027979
0.038429823
0.038553288
0.037335949
0.034135891
0.030966725
0.028807516
0.026939581
0.024905831
0.022624246
0.020159415
0.017622717
0.015148925
0.012833451
0.010728514
0.008856495
0.0072174559
0.0057961897
0.0045714226
0.0035208583
0.0026233502
0.0018596407
0.0012125186
0.00066674111
0.00020887014
0.036552976
0.03703294
0.037350829
0.037502779
0.037699033
0.038022118
0.03842334
0.038546787
0.037331689
0.034133429
0.03096304
0.028803275
0.0269348
0.024900512
0.022618678
0.020153883
0.017617471
0.015144127
0.012829186
0.010724815
0.0088533558
0.0072148428
0.005794056
0.0045697173
0.0035195305
0.002622352
0.0018589279
0.0012120511
0.00066648289
0.00020878892
0.036547361
0.037027168
0.037345289
0.037497309
0.037693496
0.038016256
0.038416867
0.038540298
0.037327446
0.034131028
0.030959425
0.028799094
0.026930057
0.024895223
0.022613134
0.020148371
0.01761224
0.015139339
0.012824928
0.01072112
0.0088502163
0.0072122269
0.005791918
0.0045680068
0.0035181977
0.0026213493
0.0018582116
0.0012115811
0.00066622322
0.00020870721
0.036541733
0.037021382
0.037339741
0.037491832
0.037687954
0.038010392
0.038410403
0.038533825
0.03732322
0.034128679
0.030955874
0.028794967
0.026925354
0.024889966
0.022607618
0.020142882
0.017607029
0.015134569
0.012820688
0.01071744
0.0088470924
0.0072096257
0.0057897933
0.0045663079
0.0035168745
0.0026203542
0.0018575008
0.0012111148
0.00066596552
0.00020862612
0.036536093
0.037015583
0.03733418
0.037486348
0.037682407
0.038004528
0.038403948
0.038527367
0.037319021
0.034126374
0.030952386
0.028790892
0.026920692
0.024884739
0.022602127
0.020137418
0.017601835
0.015129813
0.012816456
0.010713766
0.0088439714
0.0072070255
0.0057876687
0.0045646085
0.0035155506
0.0026193586
0.0018567896
0.0012106483
0.00066570779
0.00020854504
0.036530442
0.037009773
0.037328613
0.037480857
0.037676854
0.037998662
0.038397495
0.038520926
0.037314844
0.034124117
0.030948976
0.02878687
0.026916074
0.024879543
0.022596663
0.020131975
0.01759666
0.015125074
0.012812239
0.010710105
0.0088408623
0.0072044361
0.0057855538
0.0045629175
0.0035142338
0.0026183685
0.0018560826
0.0012101845
0.00066545156
0.00020846442
0.036524777
0.037003954
0.037323034
0.037475359
0.037671295
0.037992787
0.038391051
0.038514499
0.037310681
0.034121921
0.030945632
0.028782907
0.026911495
0.024874377
0.022591222
0.020126553
0.017591502
0.015120347
0.012808031
0.010706449
0.0088377543
0.0072018452
0.0057834354
0.0045612222
0.0035129124
0.0026173743
0.0018553721
0.0012097184
0.00066519394
0.00020838335
0.0365191
0.036998123
0.037317441
0.037469853
0.037665731
0.037986912
0.038384616
0.038508084
0.037306537
0.034119779
0.03094236
0.028778997
0.026906955
0.024869241
0.022585808
0.020121154
0.017586365
0.01511564
0.012803841
0.010702811
0.0088346635
0.0071992704
0.0057813319
0.0045595399
0.0035116018
0.0026163885
0.0018546679
0.0012092563
0.00066493854
0.00020830296
0.03651341
0.03699228
0.037311842
0.037464339
0.03766016
0.037981035
0.038378189
0.038501686
0.037302412
0.034117681
0.030939156
0.028775139
0.026902457
0.024864135
0.022580419
0.020115776
0.017581244
0.015110945
0.012799659
0.010699177
0.0088315747
0.0071966958
0.0057792274
0.0045578562
0.0035102897
0.0026154016
0.0018539628
0.0012087937
0.00066468293
0.00020822253
0.036507708
0.036986426
0.037306233
0.037458818
0.03765458
0.037975157
0.038371772
0.038495305
0.037298316
0.034115629
0.030936016
0.028771344
0.026897997
0.024859059
0.022575056
0.020110419
0.017576141
0.015106265
0.012795491
0.010695555
0.0088284972
0.0071941318
0.0057771326
0.0045561812
0.003508985
0.0026144205
0.0018532621
0.0012083341
0.00066442892
0.0002081426
0.036501993
0.036980551
0.037300616
0.037453289
0.037648994
0.037969278
0.038365364
0.038488937
0.037294242
0.034113638
0.030932952
0.0287676
0.026893575
0.024854013
0.022569718
0.020105082
0.017571053
0.015101597
0.01279133
0.010691936
0.0088254188
0.0071915638
0.0057750321
0.0045544997
0.0035076741
0.0026134339
0.001852557
0.0012078713
0.00066417312
0.00020806207
0.036496265
0.036974665
0.03729499
0.037447752
0.037643403
0.037963397
0.038358965
0.038482588
0.037290184
0.0341117
0.030929959
0.028763909
0.026889192
0.024849002
0.022564406
0.020099768
0.017565987
0.015096948
0.012787187
0.010688335
0.0088223575
0.0071890121
0.0057729465
0.004552831
0.0035063738
0.0026124556
0.001851858
0.0012074125
0.00066391948
0.00020798222
0.036490524
0.036968768
0.037289355
0.037442208
0.037637805
0.037957517
0.038352576
0.038476256
0.037286145
0.034109804
0.03092704
0.028760272
0.026884847
0.024844022
0.022559119
0.020094475
0.017560937
0.015092311
0.012783052
0.010684739
0.0088192979
0.0071864601
0.0057708597
0.0045511607
0.0035050718
0.0026114759
0.0018511579
0.0012069531
0.00066366559
0.00020790231
0.036484767
0.03696286
0.037283711
0.037436655
0.037632202
0.037951636
0.038346198
0.038469944
0.037282128
0.034107954
0.03092419
0.028756692
0.026880541
0.02483907
0.022553856
0.020089203
0.017555906
0.015087691
0.012778933
0.010681156
0.0088162515
0.0071839206
0.0057687843
0.0045495005
0.0035037785
0.0026105032
0.0018504631
0.0012064973
0.00066341362
0.000207823
0.036478996
0.03695694
0.037278057
0.037431094
0.037626592
0.037945755
0.03833983
0.038463652
0.037278142
0.034106165
0.030921406
0.028753162
0.026876275
0.024834145
0.022548615
0.020083949
0.017550892
0.015083082
0.01277482
0.010677577
0.008813204
0.0071813771
0.0057667032
0.0045478339
0.0035024789
0.0026095249
0.0018497638
0.0012060383
0.00066315989
0.00020774312
0.036473211
0.036951007
0.037272394
0.037425525
0.037620977
0.037939874
0.038333472
0.038457372
0.037274179
0.034104425
0.030918699
0.028749688
0.026872046
0.024829249
0.022543398
0.020078718
0.017545899
0.015078492
0.012770725
0.010674014
0.0088101732
0.0071788494
0.0057646365
0.00454618
0.0035011898
0.0026085549
0.0018490706
0.0012055833
0.00066290831
0.00020766389
0.036467414
0.036945062
0.03726672
0.037419948
0.037615356
0.037933993
0.038327123
0.038451114
0.037270234
0.034102725
0.030916065
0.028746272
0.026867853
0.024824379
0.022538204
0.020073507
0.017540922
0.015073914
0.012766638
0.010670455
0.0088071422
0.0071763194
0.0057625665
0.0045445223
0.0034998973
0.0026075821
0.0018483754
0.001205127
0.00066265604
0.00020758447
0.036461603
0.036939104
0.037261037
0.03741436
0.037609728
0.037928112
0.038320779
0.038444877
0.03726631
0.034101071
0.030913507
0.028742905
0.026863699
0.024819536
0.022533035
0.020068315
0.017535962
0.015069353
0.012762566
0.010666909
0.0088041238
0.0071738009
0.0057605067
0.0045428736
0.0034986123
0.0026066152
0.0018476844
0.0012046735
0.00066240533
0.00020750553
0.036455779