/*--------------------------------*- C++ -*----------------------------------*\
| =========                 |                                                 |
| \\      /  F ield         | OpenFOAM: The Open Source CFD Toolbox           |
|  \\    /   O peration     | Version:  v2012                                 |
|   \\  /    A nd           | Website:  www.openfoam.com                      |
|    \\/     M anipulation  |                                                 |
\*---------------------------------------------------------------------------*/
FoamFile
{
    version     2.0;
    format      ascii;
    class       volScalarField;
    location    "200";
    object      nut;
}
// * * * * * * * * * * * * * * * * * * * * * * * * * * * * * * * * * * * * * //

dimensions      [0 2 -1 0 0 0 0];


internalField   nonuniform List<scalar> 
24000
(
4.4636108e-05
1.1364518e-05
2.2984636e-05
2.6930808e-05
1.3045708e-05
6.7427307e-06
4.0468982e-06
2.6049049e-06
1.7491535e-06
1.3692416e-06
1.2552682e-06
1.2838304e-06
8.9725683e-07
6.9117721e-07
5.9254322e-07
4.4481156e-07
3.1099466e-07
2.0042909e-07
1.1315417e-07
4.9487357e-08
1.8304986e-08
5.8590428e-09
1.6512102e-09
4.1033902e-10
8.8082601e-11
1.5615112e-11
2.2064807e-12
3.7689127e-13
2.4762936e-13
2.62722e-13
4.4658541e-05
1.1274398e-05
2.2037839e-05
2.4743742e-05
1.2207974e-05
6.4465357e-06
3.8562034e-06
2.4914166e-06
1.7090187e-06
1.3445326e-06
1.2339771e-06
1.2484459e-06
9.0118075e-07
6.8895628e-07
5.963774e-07
4.4995525e-07
3.1652026e-07
2.0517483e-07
1.1571165e-07
5.0682133e-08
1.8751298e-08
6.0021459e-09
1.6921888e-09
4.2080104e-10
9.0416317e-11
1.6075028e-11
2.3139756e-12
4.3856797e-13
3.1118567e-13
3.3001656e-13
4.4679155e-05
1.127765e-05
2.2474116e-05
2.6051536e-05
1.2892792e-05
6.7345538e-06
3.9835227e-06
2.5728375e-06
1.7491126e-06
1.3607143e-06
1.2396494e-06
1.2444496e-06
9.0354969e-07
6.8906456e-07
5.9784696e-07
4.5109458e-07
3.1763467e-07
2.062826e-07
1.1798004e-07
5.1992838e-08
1.9317716e-08
6.1962741e-09
1.7478268e-09
4.3453667e-10
9.3312878e-11
1.6561403e-11
2.3579981e-12
4.2080213e-13
2.8598312e-13
3.0324356e-13
4.4699566e-05
1.1281801e-05
2.2643017e-05
2.6527226e-05
1.3104789e-05
6.8204947e-06
4.0164483e-06
2.5820051e-06
1.7480581e-06
1.356498e-06
1.2347319e-06
1.237002e-06
9.0314977e-07
6.8882683e-07
5.9929207e-07
4.5163379e-07
3.1765748e-07
2.0601235e-07
1.1736005e-07
5.1572848e-08
1.9116019e-08
6.1219851e-09
1.7254509e-09
4.2882553e-10
9.2080715e-11
1.6348519e-11
2.3344627e-12
4.2360124e-13
2.9150342e-13
3.0913466e-13
4.4719824e-05
1.130154e-05
2.2851907e-05
2.7020781e-05
1.328868e-05
6.8875041e-06
4.0394044e-06
2.587188e-06
1.7473193e-06
1.3546953e-06
1.2331998e-06
1.2356161e-06
9.0258528e-07
6.8866247e-07
5.9882536e-07
4.5130435e-07
3.174856e-07
2.0594832e-07
1.1741536e-07
5.1617149e-08
1.9137489e-08
6.1295732e-09
1.7276123e-09
4.2934831e-10
9.2188267e-11
1.6365863e-11
2.3355622e-12
4.2242976e-13
2.900018e-13
3.07534e-13
4.4739934e-05
1.131593e-05
2.3009176e-05
2.73535e-05
1.3401516e-05
6.927921e-06
4.052013e-06
2.5890948e-06
1.7461686e-06
1.3527913e-06
1.2315743e-06
1.2344488e-06
9.017797e-07
6.8843814e-07
5.986494e-07
4.5113281e-07
3.1732989e-07
2.0581664e-07
1.1728727e-07
5.1545601e-08
1.9106377e-08
6.1186469e-09
1.7243921e-09
4.2853473e-10
9.2013409e-11
1.6335216e-11
2.3315103e-12
4.2200512e-13
2.8986706e-13
3.073947e-13
4.4759886e-05
1.1331855e-05
2.3128014e-05
2.7591631e-05
1.3482938e-05
6.9590534e-06
4.0622588e-06
2.5908387e-06
1.7452877e-06
1.3511802e-06
1.2302924e-06
1.2338432e-06
9.0094633e-07
6.8821659e-07
5.9834554e-07
4.5090249e-07
3.1714939e-07
2.056821e-07
1.1718111e-07
5.1490673e-08
1.9083723e-08
6.1109363e-09
1.7221563e-09
4.2797422e-10
9.1893216e-11
1.6313987e-11
2.3284855e-12
4.2144262e-13
2.894713e-13
3.069749e-13
4.4779677e-05
1.1345894e-05
2.3213945e-05
2.7764395e-05
1.3545457e-05
6.98566e-06
4.0717091e-06
2.5926007e-06
1.7444604e-06
1.3496386e-06
1.2290756e-06
1.2331657e-06
9.0011928e-07
6.8799358e-07
5.9805299e-07
4.5067936e-07
3.1697146e-07
2.0554676e-07
1.1706881e-07
5.1431795e-08
1.9059239e-08
6.1025683e-09
1.7197265e-09
4.2736505e-10
9.1762698e-11
1.6291012e-11
2.3252846e-12
4.2092059e-13
2.8914017e-13
3.0662423e-13
4.4799299e-05
1.1357062e-05
2.3285163e-05
2.7897011e-05
1.3598151e-05
7.0104467e-06
4.0810255e-06
2.5943867e-06
1.7436697e-06
1.3481463e-06
1.2279001e-06
1.2325579e-06
8.9931808e-07
6.8777392e-07
5.9776005e-07
4.5045677e-07
3.1679492e-07
2.0541336e-07
1.1695966e-07
5.1374891e-08
1.9035667e-08
6.0945309e-09
1.7173956e-09
4.2678106e-10
9.1637612e-11
1.6268991e-11
2.3222096e-12
4.2041134e-13
2.888126e-13
3.0627708e-13
4.4818744e-05
1.1365493e-05
2.3343191e-05
2.8003829e-05
1.3645517e-05
7.0344276e-06
4.0903189e-06
2.5961778e-06
1.7428887e-06
1.3466744e-06
1.2267393e-06
1.2319434e-06
8.985455e-07
6.8755822e-07
5.9747559e-07
4.5023884e-07
3.1662157e-07
2.0528229e-07
1.1685286e-07
5.1319333e-08
1.9012685e-08
6.0866997e-09
1.715125e-09
4.2621209e-10
9.1515713e-11
1.6247526e-11
2.3192141e-12
4.1991834e-13
2.8849733e-13
3.0594304e-13
4.4838003e-05
1.1371788e-05
2.3366818e-05
2.8093821e-05
1.3689697e-05
7.0580472e-06
4.0996357e-06
2.5979677e-06
1.7421102e-06
1.3452129e-06
1.2255857e-06
1.2313159e-06
8.978005e-07
6.8734705e-07
5.9719982e-07
4.5002543e-07
3.1645113e-07
2.0515324e-07
1.1674829e-07
5.1265048e-08
1.899026e-08
6.0790642e-09
1.7129116e-09
4.2565743e-10
9.139686e-11
1.6226593e-11
2.3162911e-12
4.1943605e-13
2.881884e-13
3.0561584e-13
4.4857068e-05
1.137655e-05
2.3387055e-05
2.8172563e-05
1.373189e-05
7.0815111e-06
4.1089977e-06
2.5997558e-06
1.7413305e-06
1.343756e-06
1.2244355e-06
1.2306812e-06
8.9708055e-07
6.8714062e-07
5.9693295e-07
4.498167e-07
3.1628358e-07
2.0502596e-07
1.1664548e-07
5.1211721e-08
1.8968247e-08
6.0715707e-09
1.710739e-09
4.251128e-10
9.1280092e-11
1.6206014e-11
2.3134152e-12
4.1896066e-13
2.8788369e-13
3.0529329e-13
4.4875932e-05
1.1380235e-05
2.3404078e-05
2.82436e-05
1.3772841e-05
7.1049275e-06
4.1184205e-06
2.6015467e-06
1.7405481e-06
1.3423021e-06
1.2232885e-06
1.2300364e-06
8.9638314e-07
6.8693916e-07
5.9667437e-07
4.4961251e-07
3.1611885e-07
2.0490041e-07
1.1654412e-07
5.1159144e-08
1.8946545e-08
6.064183e-09
1.7085967e-09
4.2457558e-10
9.1164874e-11
1.6185702e-11
2.3105765e-12
4.1849227e-13
2.8758416e-13
3.0497639e-13
4.4894588e-05
1.1383214e-05
2.3418368e-05
2.8309266e-05
1.3812984e-05
7.1283546e-06
4.1279174e-06
2.6033481e-06
1.7397629e-06
1.3408516e-06
1.2221461e-06
1.2293808e-06
8.9570621e-07
6.8674294e-07
5.9642383e-07
4.49413e-07
3.159572e-07
2.0477679e-07
1.1644427e-07
5.110732e-08
1.8925145e-08
6.0568952e-09
1.7064822e-09
4.2404492e-10
9.105097e-11
1.6165607e-11
2.3077678e-12
4.1803084e-13
2.8729046e-13
3.0466578e-13
4.491303e-05
1.1385761e-05
2.3430554e-05
2.8371185e-05
1.3852617e-05
7.15184e-06
4.1375023e-06
2.6051684e-06
1.7389764e-06
1.3394052e-06
1.2210099e-06
1.2287189e-06
8.9504802e-07
6.8655223e-07
5.9618091e-07
4.492181e-07
3.1579871e-07
2.0465526e-07
1.1634595e-07
5.1056258e-08
1.8904053e-08
6.04971e-09
1.7043968e-09
4.2352144e-10
9.0938575e-11
1.6145774e-11
2.3049982e-12
4.1757915e-13
2.8700489e-13
3.0436383e-13
4.4931251e-05
1.1388067e-05
2.3441164e-05
2.8430446e-05
1.3891981e-05
7.1754301e-06
4.147192e-06
2.6070163e-06
1.7381902e-06
1.3379637e-06
1.2198812e-06
1.2280553e-06
8.9440711e-07
6.8636729e-07
5.9594518e-07
4.4902778e-07
3.1564343e-07
2.0453591e-07
1.1624926e-07
5.1006015e-08
1.8883293e-08
6.0426367e-09
1.7023434e-09
4.2300582e-10
9.0827829e-11
1.6126228e-11
2.3022704e-12
4.1713697e-13
2.8672689e-13
3.0406985e-13
4.4949247e-05
1.1390262e-05
2.3450615e-05
2.8487811e-05
1.3931234e-05
7.1991478e-06
4.1570776e-06
2.6088978e-06
1.7374062e-06
1.3365282e-06
1.2187611e-06
1.2273925e-06
8.937822e-07
6.861883e-07
5.957163e-07
4.4884192e-07
3.1549129e-07
2.0441872e-07
1.1615415e-07
5.095657e-08
1.8862859e-08
6.0356736e-09
1.700322e-09
4.2249824e-10
9.0718822e-11
1.6106993e-11
2.2995879e-12
4.1670404e-13
2.8645571e-13
3.0378305e-13
4.4967013e-05
1.1392433e-05
2.3459243e-05
2.8543871e-05
1.3970469e-05
7.2229978e-06
4.1670003e-06
2.6108161e-06
1.7366264e-06
1.335099e-06
1.2176497e-06
1.2267322e-06
8.9317221e-07
6.8601538e-07
5.9549429e-07
4.4866058e-07
3.153423e-07
2.0430362e-07
1.1606056e-07
5.0907878e-08
1.8842725e-08
6.0288098e-09
1.6983284e-09
4.2199741e-10
9.0611209e-11
1.6087995e-11
2.2969387e-12
4.162774e-13
2.8618906e-13
3.0350102e-13
4.4984543e-05
1.1394636e-05
2.3467298e-05
2.8599086e-05
1.400975e-05
7.2469796e-06
4.1769838e-06
2.6127728e-06
1.7358511e-06
1.3336763e-06
1.2165473e-06
1.2260752e-06
8.9257617e-07
6.8584861e-07
5.9527906e-07
4.4848373e-07
3.1519641e-07
2.0419059e-07
1.159684e-07
5.0859893e-08
1.8822876e-08
6.0220413e-09
1.6963622e-09
4.2150339e-10
9.0505052e-11
1.6069254e-11
2.2943258e-12
4.1585735e-13
2.8592694e-13
3.0322379e-13
4.5001836e-05
1.1396909e-05
2.3474983e-05
2.8653777e-05
1.4049141e-05
7.2710958e-06
4.1870676e-06
2.614771e-06
1.7350813e-06
1.33226e-06
1.215454e-06
1.225423e-06
8.9199332e-07
6.8568808e-07
5.9507042e-07
4.4831135e-07
3.1505363e-07
2.0407961e-07
1.1587764e-07
5.0812586e-08
1.8803297e-08
6.0153626e-09
1.6944215e-09
4.2101563e-10
9.0400207e-11
1.6050739e-11
2.2917436e-12
4.1544215e-13
2.8566786e-13
3.0294977e-13
4.5018885e-05
1.1399276e-05
2.3482434e-05
2.8708144e-05
1.4088693e-05
7.2953398e-06
4.1972647e-06
2.6168148e-06
1.7343183e-06
1.3308502e-06
1.2143697e-06
1.2247763e-06
8.9142296e-07
6.8553385e-07
5.9486823e-07
4.4814341e-07
3.1491396e-07
2.0397071e-07
1.1578824e-07
5.0765933e-08
1.8783977e-08
6.0087713e-09
1.6925061e-09
4.2053425e-10
9.029674e-11
1.6032469e-11
2.2891961e-12
4.1503288e-13
2.8541264e-13
3.0267983e-13
4.5035689e-05
1.1401743e-05
2.348973e-05
2.8762322e-05
1.4128403e-05
7.3196847e-06
4.2075752e-06
2.6189048e-06
1.7335628e-06
1.3294474e-06
1.2132943e-06
1.2241357e-06
8.9086455e-07
6.8538597e-07
5.9467252e-07
4.4797999e-07
3.1477744e-07
2.0386388e-07
1.157002e-07
5.0719926e-08
1.8764909e-08
6.0022613e-09
1.6906133e-09
4.2005828e-10
9.0194387e-11
1.6014388e-11
2.2866743e-12
4.1462808e-13
2.8516047e-13
3.024131e-13
4.5052245e-05
1.1404316e-05
2.3496966e-05
2.8816444e-05
1.4168247e-05
7.3441133e-06
4.2179903e-06
2.6210401e-06
1.7328149e-06
1.3280519e-06
1.2122279e-06
1.2235016e-06
8.9031771e-07
6.8524454e-07
5.9448324e-07
4.4782111e-07
3.1464414e-07
2.037592e-07
1.1561355e-07
5.0674586e-08
1.8746106e-08
5.9958402e-09
1.6887461e-09
4.1958879e-10
9.0093427e-11
1.5996553e-11
2.284187e-12
4.1422884e-13
2.8491177e-13
3.0215002e-13
4.506855e-05
1.1406998e-05
2.3504206e-05
2.8870594e-05
1.4208187e-05
7.3686159e-06
4.2285028e-06
2.6232208e-06
1.7320751e-06
1.326664e-06
1.2111711e-06
1.2228748e-06
8.8978213e-07
6.8510969e-07
5.9430026e-07
4.4766674e-07
3.1451404e-07
2.0365665e-07
1.1552828e-07
5.0629899e-08
1.8727557e-08
5.9895026e-09
1.6869026e-09
4.1912506e-10
8.9993679e-11
1.5978927e-11
2.2817276e-12
4.1383348e-13
2.8466518e-13
3.0188917e-13
4.5084601e-05
1.1409791e-05
2.3511459e-05
2.8924762e-05
1.4248201e-05
7.3931745e-06
4.2391014e-06
2.6254471e-06
1.731345e-06
1.3252841e-06
1.2101241e-06
1.2222562e-06
8.8925762e-07
6.8498156e-07
5.9412353e-07
4.4751691e-07
3.143872e-07
2.0355632e-07
1.1544442e-07
5.0585879e-08
1.8709272e-08
5.9832532e-09
1.6850846e-09
4.1866781e-10
8.9895335e-11
1.5961552e-11
2.2793034e-12
4.134437e-13
2.8442198e-13
3.0163187e-13
4.5100398e-05
1.1412688e-05
2.3518718e-05
2.8978913e-05
1.4288277e-05
7.4177699e-06
4.2497784e-06
2.6277204e-06
1.7306263e-06
1.3239126e-06
1.2090867e-06
1.2216459e-06
8.8874393e-07
6.8486028e-07
5.9395311e-07
4.4737161e-07
3.1426357e-07
2.0345815e-07
1.1536193e-07
5.0542503e-08
1.8691232e-08
5.9770825e-09
1.6832883e-09
4.1821575e-10
8.9798058e-11
1.5944357e-11
2.2769033e-12
4.130575e-13
2.8418091e-13
3.013768e-13
4.5115938e-05
1.1415685e-05
2.3525941e-05
2.9032977e-05
1.4328362e-05
7.4423691e-06
4.260527e-06
2.63004e-06
1.729919e-06
1.3225497e-06
1.2080588e-06
1.2210443e-06
8.8824086e-07
6.8474594e-07
5.9378901e-07
4.4723089e-07
3.1414323e-07
2.033622e-07
1.1528087e-07
5.0499805e-08
1.867346e-08
5.9710013e-09
1.681518e-09
4.1777024e-10
8.9702198e-11
1.5927413e-11
2.2745379e-12
4.1267632e-13
2.8394259e-13
3.0112462e-13
4.5131221e-05
1.1418776e-05
2.3533082e-05
2.9086889e-05
1.4368393e-05
7.4669366e-06
4.2713369e-06
2.6324039e-06
1.7292239e-06
1.3211962e-06
1.2070408e-06
1.2204521e-06
8.8774834e-07
6.8463869e-07
5.9363106e-07
4.4709466e-07
3.1402611e-07
2.0326844e-07
1.1520121e-07
5.0457768e-08
1.8655944e-08
5.9650037e-09
1.6797711e-09
4.1733049e-10
8.960755e-11
1.5910679e-11
2.2722e-12
4.1229836e-13
2.8370564e-13
3.0087387e-13
4.5146246e-05
1.142195e-05
2.3540136e-05
2.9140617e-05
1.4408339e-05
7.4914546e-06
4.2821997e-06
2.6348109e-06
1.7285415e-06
1.3198524e-06
1.206033e-06
1.2198698e-06
8.8726629e-07
6.8453862e-07
5.9347927e-07
4.4696295e-07
3.1391226e-07
2.0317694e-07
1.1512299e-07
5.0416418e-08
1.8638699e-08
5.9590971e-09
1.6780508e-09
4.1689748e-10
8.9514371e-11
1.5894207e-11
2.2698986e-12
4.1192553e-13
2.8347141e-13
3.0062596e-13
4.5161012e-05
1.1425203e-05
2.3547076e-05
2.9194071e-05
1.4448172e-05
7.5159114e-06
4.2931106e-06
2.6372612e-06
1.7278721e-06
1.3185185e-06
1.2050352e-06
1.2192973e-06
8.8679452e-07
6.8444576e-07
5.9333364e-07
4.4683567e-07
3.1380153e-07
2.0308755e-07
1.1504615e-07
5.0375712e-08
1.86217e-08
5.9532689e-09
1.676352e-09
4.1646965e-10
8.9422258e-11
1.5877916e-11
2.2676208e-12
4.115556e-13
2.8323852e-13
3.0037945e-13
4.5175519e-05
1.1428525e-05
2.3553873e-05
2.9247175e-05
1.4487843e-05
7.5402898e-06
4.3040657e-06
2.6397559e-06
1.7272163e-06
1.3171944e-06
1.2040478e-06
1.2187348e-06
8.8633286e-07
6.8436016e-07
5.9319423e-07
4.4671288e-07
3.1369394e-07
2.0300029e-07
1.1497069e-07
5.0335675e-08
1.8604966e-08
5.9475299e-09
1.6746792e-09
4.1604838e-10
8.9331571e-11
1.5861878e-11
2.2653772e-12
4.1118964e-13
2.8300721e-13
3.0013459e-13
4.5189767e-05
1.1431906e-05
2.3560489e-05
2.9299853e-05
1.4527284e-05
7.5645595e-06
4.315055e-06
2.6422937e-06
1.7265751e-06
1.3158807e-06
1.2030707e-06
1.2181825e-06
8.8588116e-07
6.8428185e-07
5.9306096e-07
4.4659446e-07
3.1358936e-07
2.0291499e-07
1.148965e-07
5.029623e-08
1.8588461e-08
5.9418651e-09
1.6730272e-09
4.156322e-10
8.9241953e-11
1.5846024e-11
2.2631568e-12
4.1082536e-13
2.827758e-13
2.9988962e-13
4.5203757e-05
1.1435336e-05
2.3566861e-05
2.9351985e-05
1.4566434e-05
7.588694e-06
4.3260694e-06
2.6448714e-06
1.7259489e-06
1.314578e-06
1.2021038e-06
1.2176405e-06
8.8543942e-07
6.8421088e-07
5.9293388e-07
4.4648052e-07
3.1348786e-07
2.0283174e-07
1.1482359e-07
5.0257386e-08
1.8572192e-08
5.9362798e-09
1.6713984e-09
4.1522196e-10
8.9153637e-11
1.5830403e-11
2.2609683e-12
4.1046487e-13
2.8254594e-13
2.9964627e-13
4.5217488e-05
1.1438801e-05
2.3572944e-05
2.940347e-05
1.4605257e-05
7.6126864e-06
4.3371056e-06
2.6474883e-06
1.7253378e-06
1.3132866e-06
1.2011471e-06
1.2171087e-06
8.8500762e-07
6.8414733e-07
5.9281302e-07
4.46371e-07
3.1338936e-07
2.027504e-07
1.1475185e-07
5.0219069e-08
1.8556117e-08
5.9307541e-09
1.6697855e-09
4.1481542e-10
8.9066064e-11
1.5814905e-11
2.2587949e-12
4.1010565e-13
2.8231627e-13
2.994031e-13
4.5230962e-05
1.1442294e-05
2.3578694e-05
2.9454243e-05
1.4643732e-05
7.6365256e-06
4.3481582e-06
2.6501444e-06
1.7247432e-06
1.3120068e-06
1.2002008e-06
1.2165875e-06
8.8458574e-07
6.8409125e-07
5.9269846e-07
4.4626603e-07
3.1329397e-07
2.026711e-07
1.1468139e-07
5.0181351e-08
1.8540275e-08
5.9253061e-09
1.668195e-09
4.1441454e-10
8.8979722e-11
1.5799626e-11
2.256651e-12
4.0974956e-13
2.8208763e-13
2.9916103e-13
4.5244181e-05
1.1445807e-05
2.3584084e-05
2.9504253e-05
1.4681827e-05
7.6601885e-06
4.3592235e-06
2.6528405e-06
1.724166e-06
1.3107389e-06
1.1992652e-06
1.2160771e-06
8.8417373e-07
6.8404272e-07
5.9259012e-07
4.4616553e-07
3.1320162e-07
2.0259373e-07
1.1461214e-07
5.0144178e-08
1.8524637e-08
5.9199223e-09
1.6666221e-09
4.1401784e-10
8.8894233e-11
1.5784489e-11
2.2545243e-12
4.0939402e-13
2.8185811e-13
2.9891804e-13
4.5257144e-05
1.144933e-05
2.3589095e-05
2.9553432e-05
1.4719495e-05
7.6836584e-06
4.3702999e-06
2.6555759e-06
1.7236061e-06
1.3094829e-06
1.19834e-06
1.2155775e-06
8.8377159e-07
6.8400177e-07
5.9248816e-07
4.4606965e-07
3.1311245e-07
2.0251846e-07
1.1454415e-07
5.010759e-08
1.8509227e-08
5.9146142e-09
1.665071e-09
4.1362669e-10
8.8809955e-11
1.5769569e-11
2.2524267e-12
4.0904172e-13
2.8162978e-13
2.9867629e-13
4.5269854e-05
1.1452847e-05
2.3593648e-05
2.9601731e-05
1.4756712e-05
7.706933e-06
4.3813848e-06
2.6583479e-06
1.7230633e-06
1.3082389e-06
1.197425e-06
1.2150884e-06
8.8337928e-07
6.8396843e-07
5.9239254e-07
4.4597836e-07
3.130264e-07
2.0244515e-07
1.1447734e-07
5.0071516e-08
1.8494001e-08
5.9093616e-09
1.6635345e-09
4.1323881e-10
8.8726311e-11
1.5754749e-11
2.250341e-12
4.0869024e-13
2.8140142e-13
2.9843451e-13
4.5282312e-05
1.1456348e-05
2.3597722e-05
2.9649114e-05
1.4793471e-05
7.7300117e-06
4.3924745e-06
2.6611554e-06
1.7225386e-06
1.3070075e-06
1.1965206e-06
1.2146104e-06
8.8299686e-07
6.8394272e-07
5.9230329e-07
4.4589175e-07
3.1294362e-07
2.0237402e-07
1.1441187e-07
5.0036075e-08
1.8479022e-08
5.9041916e-09
1.6620218e-09
4.1285699e-10
8.8643985e-11
1.5740164e-11
2.248287e-12
4.0834248e-13
2.8117459e-13
2.9819434e-13
4.529452e-05
1.1459828e-05
2.3601309e-05
2.9695585e-05
1.4829764e-05
7.752893e-06
4.4035647e-06
2.663997e-06
1.7220341e-06
1.305789e-06
1.1956273e-06
1.2141438e-06
8.8262434e-07
6.8392466e-07
5.9222029e-07
4.4580973e-07
3.1286402e-07
2.0230496e-07
1.1434771e-07
5.0001225e-08
1.8464266e-08
5.8990925e-09
1.6605287e-09
4.1247988e-10
8.8562631e-11
1.5725742e-11
2.2462531e-12
4.079957e-13
2.8094713e-13
2.9795351e-13
4.530648e-05
1.1463279e-05
2.3604396e-05
2.9741082e-05
1.4865587e-05
7.775577e-06
4.414655e-06
2.6668721e-06
1.7215506e-06
1.3045834e-06
1.1947447e-06
1.2136883e-06
8.8226166e-07
6.8391419e-07
5.9214371e-07
4.4573247e-07
3.1278776e-07
2.0223813e-07
1.1428489e-07
4.996701e-08
1.844976e-08
5.8940774e-09
1.6590602e-09
4.1210906e-10
8.8482661e-11
1.571157e-11
2.2442532e-12
4.0765298e-13
2.8072136e-13
2.9771445e-13
4.5318194e-05
1.1466692e-05
2.3606972e-05
2.9785576e-05
1.4900927e-05
7.7980551e-06
4.425746e-06
2.6697795e-06
1.7210891e-06
1.3033906e-06
1.1938724e-06
1.2132433e-06
8.8190872e-07
6.8391129e-07
5.9207351e-07
4.4565985e-07
3.1271466e-07
2.0217329e-07
1.1422327e-07
4.9933311e-08
1.8435437e-08
5.8891172e-09
1.6576058e-09
4.1174142e-10
8.8403299e-11
1.5697493e-11
2.2422644e-12
4.0731102e-13
2.8049555e-13
2.9747534e-13
4.5329664e-05
1.147005e-05
2.3609006e-05
2.9829106e-05
1.4935761e-05
7.8203171e-06
4.4368344e-06
2.6727153e-06
1.720651e-06
1.3022112e-06
1.1930102e-06
1.2128094e-06
8.8156559e-07
6.8391597e-07
5.9200968e-07
4.4559198e-07
3.1264492e-07
2.021107e-07
1.1416301e-07
4.9900257e-08
1.8421367e-08
5.8842415e-09
1.656176e-09
4.1138002e-10
8.8325301e-11
1.5683659e-11
2.2403085e-12
4.0697281e-13
2.8027119e-13
2.9723776e-13
4.5340893e-05
1.1473349e-05
2.36105e-05
2.9871709e-05
1.497011e-05
7.8423671e-06
4.4479173e-06
2.6756794e-06
1.7202347e-06
1.3010465e-06
1.1921582e-06
1.2123871e-06
8.8123231e-07
6.8392823e-07
5.9195207e-07
4.4552874e-07
3.1257842e-07
2.0205022e-07
1.1410408e-07
4.9867798e-08
1.840752e-08
5.8794365e-09
1.6547657e-09
4.110233e-10
8.8248266e-11
1.5669987e-11
2.2383724e-12
4.0663549e-13
2.8004614e-13
2.9699944e-13
4.5351883e-05
1.1476585e-05
2.3611442e-05
2.9913423e-05
1.5004007e-05
7.8642194e-06
4.4589958e-06
2.6786737e-06
1.7198367e-06
1.2998965e-06
1.1913175e-06
1.2119761e-06
8.8090889e-07
6.8394805e-07
5.9190083e-07
4.4547031e-07
3.1251536e-07
2.0199207e-07
1.1404657e-07
4.9836009e-08
1.8393937e-08
5.8747207e-09
1.6533815e-09
4.1067329e-10
8.8172709e-11
1.5656582e-11
2.2364728e-12
4.0630269e-13
2.7982308e-13
2.9676322e-13
4.5362635e-05
1.147975e-05
2.361495e-05
2.9954231e-05
1.503747e-05
7.885887e-06
4.4700713e-06
2.6816992e-06
1.7194554e-06
1.2987607e-06
1.1904884e-06
1.2115762e-06
8.805952e-07
6.839754e-07
5.9185587e-07
4.454165e-07
3.1245551e-07
2.01936e-07
1.1399031e-07
4.9804767e-08
1.8380551e-08
5.8700638e-09
1.6520126e-09
4.1032674e-10
8.8097825e-11
1.5643284e-11
2.234586e-12
4.0597087e-13
2.7960012e-13
2.9652708e-13
4.5373154e-05
1.1482833e-05
2.363113e-05
2.9994116e-05
1.5070517e-05
7.9073745e-06
4.4811433e-06
2.6847567e-06
1.7190909e-06
1.2976389e-06
1.1896713e-06
1.2111876e-06
8.8029119e-07
6.8401024e-07
5.9181714e-07
4.4536738e-07
3.1239901e-07
2.0188219e-07
1.1393546e-07
4.9774196e-08
1.8367428e-08
5.8654956e-09
1.6506696e-09
4.0998679e-10
8.8024382e-11
1.5630242e-11
2.232734e-12
4.0564293e-13
2.7937856e-13
2.9629243e-13
4.5383442e-05
1.1485829e-05
2.364658e-05
3.0033108e-05
1.5103142e-05
7.9286789e-06
4.4922076e-06
2.6878437e-06
1.7187434e-06
1.2965314e-06
1.1888661e-06
1.2108106e-06
8.7999677e-07
6.8405251e-07
5.9178444e-07
4.4532279e-07
3.1234568e-07
2.0183045e-07
1.1388191e-07
4.9744211e-08
1.8354525e-08
5.8609972e-09
1.6493458e-09
4.0965145e-10
8.7951892e-11
1.5617362e-11
2.2309014e-12
4.0531568e-13
2.7915609e-13
2.960568e-13
4.53935e-05
1.1488734e-05
2.366153e-05
3.0071251e-05
1.5135313e-05
7.9498039e-06
4.5032623e-06
2.6909571e-06
1.7184123e-06
1.2954382e-06
1.1880726e-06
1.2104447e-06
8.797119e-07
6.8410215e-07
5.9175795e-07
4.4528288e-07
3.1229571e-07
2.0178101e-07
1.1382975e-07
4.9714884e-08
1.8341882e-08
5.8565867e-09
1.6480479e-09
4.0932278e-10
8.7880873e-11
1.5604747e-11
2.2291053e-12
4.0499292e-13
2.7893558e-13
2.9582323e-13
4.5403333e-05
1.1491549e-05
2.3676016e-05
3.0108605e-05
1.5167044e-05
7.970758e-06
4.5143069e-06
2.6940948e-06
1.7180967e-06
1.2943589e-06
1.1872906e-06
1.2100895e-06
8.7943644e-07
6.8415908e-07
5.9173752e-07
4.4524744e-07
3.1224885e-07
2.0173355e-07
1.1377878e-07
4.9686071e-08
1.8329421e-08
5.8522301e-09
1.6467639e-09
4.089972e-10
8.7810452e-11
1.5592227e-11
2.2273204e-12
4.0467102e-13
2.7871514e-13
2.9558973e-13
4.5412943e-05
1.1494272e-05
2.3689949e-05
3.0145279e-05
1.5198396e-05
7.9915428e-06
4.5253376e-06
2.6972554e-06
1.7177965e-06
1.2932936e-06
1.1865203e-06
1.2097456e-06
8.7917036e-07
6.8422326e-07
5.9172308e-07
4.4521653e-07
3.1220524e-07
2.0168832e-07
1.137292e-07
4.9657923e-08
1.8317224e-08
5.8479626e-09
1.6455059e-09
4.086783e-10
8.7741492e-11
1.5579968e-11
2.2255709e-12
4.043531e-13
2.7849617e-13
2.9535776e-13
4.5422332e-05
1.1496896e-05
2.3703223e-05
3.0181297e-05
1.5229418e-05
8.0121647e-06
4.5363541e-06
2.7004385e-06
1.7175118e-06
1.2922418e-06
1.1857615e-06
1.209413e-06
8.7891359e-07
6.8429465e-07
5.9171442e-07
4.4518996e-07
3.1216469e-07
2.016451e-07
1.1368089e-07
4.9630349e-08
1.8305242e-08
5.8437637e-09
1.6442669e-09
4.0836397e-10
8.7673478e-11
1.5567869e-11
2.2238409e-12
4.0403583e-13
2.7827623e-13
2.9512477e-13
4.5431505e-05
1.1499419e-05
2.3715805e-05
3.0216624e-05
1.526015e-05
8.0326346e-06
4.5473578e-06
2.7036424e-06
1.7172411e-06
1.291203e-06
1.1850136e-06
1.2090912e-06
8.7866609e-07
6.843732e-07
5.9171176e-07
4.4516791e-07
3.1212738e-07
2.0160408e-07
1.1363393e-07
4.960342e-08
1.8293517e-08
5.8396523e-09
1.6430537e-09
4.0805633e-10
8.7606947e-11
1.5556038e-11
2.2221477e-12
4.0372301e-13
2.7805818e-13
2.9489376e-13
4.5440463e-05
1.150184e-05
2.3727754e-05
3.025128e-05
1.5290614e-05
8.0529589e-06
4.5583458e-06
2.7068641e-06
1.7169834e-06
1.2901768e-06
1.1842763e-06
1.2087801e-06
8.7842778e-07
6.8445885e-07
5.9171494e-07
4.4515016e-07
3.1209304e-07
2.0156497e-07
1.1358811e-07
4.9576977e-08
1.8281964e-08
5.8355917e-09
1.6418537e-09
4.0775162e-10
8.7540983e-11
1.5544298e-11
2.2204652e-12
4.0341097e-13
2.7784013e-13
2.9466273e-13
4.544921e-05
1.1504158e-05
2.3739131e-05
3.0285317e-05
1.5320795e-05
8.0731432e-06
4.5693165e-06
2.7101024e-06
1.7167384e-06
1.2891634e-06
1.18355e-06
1.2084798e-06
8.7819865e-07
6.8455162e-07
5.917239e-07
4.4513677e-07
3.1206185e-07
2.01528e-07
1.1354363e-07
4.9551176e-08
1.8270664e-08
5.8316165e-09
1.6406786e-09
4.0745331e-10
8.7476425e-11
1.553281e-11
2.2188171e-12
4.0310285e-13
2.7762356e-13
2.9443327e-13
4.545775e-05
1.1506373e-05
2.3749996e-05
3.0318796e-05
1.5350693e-05
8.0931953e-06
4.5802678e-06
2.713354e-06
1.716506e-06
1.2881626e-06
1.1828344e-06
1.2081908e-06
8.7797865e-07
6.8465145e-07
5.9173841e-07
4.4512754e-07
3.1203359e-07
2.0149297e-07
1.1350038e-07
4.9525927e-08
1.8259569e-08
5.8277061e-09
1.6395212e-09
4.0715924e-10
8.741274e-11
1.5521469e-11
2.2171868e-12
4.027953e-13
2.7740609e-13
2.9420283e-13
4.5466086e-05
1.1508483e-05
2.3760386e-05
3.0351762e-05
1.5380342e-05
8.1131201e-06
4.591206e-06
2.7166186e-06
1.7162853e-06
1.2871738e-06
1.1821291e-06
1.2079119e-06
8.7776771e-07
6.847583e-07
5.9175875e-07
4.4512266e-07
3.1200848e-07
2.0146009e-07
1.1345845e-07
4.9501311e-08
1.8248727e-08
5.8238809e-09
1.6383889e-09
4.068716e-10
8.7350471e-11
1.5510383e-11
2.2155915e-12
4.0249196e-13
2.7719039e-13
2.9397428e-13
4.547422e-05
1.1510487e-05
2.3770303e-05
3.0384237e-05
1.5409777e-05
8.1329176e-06
4.602122e-06
2.719896e-06
1.7160758e-06
1.2861963e-06
1.1814334e-06
1.2076429e-06
8.7756566e-07
6.8487212e-07
5.9178474e-07
4.4512188e-07
3.1198619e-07
2.0142904e-07
1.1341762e-07
4.9477161e-08
1.8238047e-08
5.820104e-09
1.637269e-09
4.0658674e-10
8.7288739e-11
1.5499383e-11
2.2140063e-12
4.0218948e-13
2.7697483e-13
2.9374585e-13
4.5482158e-05
1.1512384e-05
2.3779757e-05
3.0416246e-05
1.5439016e-05
8.1525854e-06
4.613011e-06
2.7231839e-06
1.7158768e-06
1.2852298e-06
1.1807476e-06
1.2073843e-06
8.773725e-07
6.8499293e-07
5.9181634e-07
4.4512528e-07
3.1196691e-07
2.0140005e-07
1.133781e-07
4.9453646e-08
1.8227622e-08
5.8164134e-09
1.6361744e-09
4.0630839e-10
8.7228437e-11
1.5488639e-11
2.2124561e-12
4.0189095e-13
2.7676075e-13
2.9351898e-13
4.5489902e-05
1.1514173e-05
2.3788769e-05
3.0447795e-05
1.5468065e-05
8.1721267e-06
4.6238684e-06
2.7264804e-06
1.7156882e-06
1.2842744e-06
1.1800715e-06
1.2071363e-06
8.7718822e-07
6.851207e-07
5.9185336e-07
4.4513268e-07
3.1195045e-07
2.0137293e-07
1.1333976e-07
4.9430669e-08
1.8217399e-08
5.812787e-09
1.6350977e-09
4.0603434e-10
8.7169032e-11
1.5478047e-11
2.2109245e-12
4.0159315e-13
2.7654585e-13
2.9329123e-13
4.5497457e-05
1.1515855e-05
2.3797307e-05
3.0478864e-05
1.5496919e-05
8.1915506e-06
4.6346936e-06
2.7297832e-06
1.7155092e-06
1.2833296e-06
1.1794044e-06
1.2068983e-06
8.770128e-07
6.8525545e-07
5.9189607e-07
4.451443e-07
3.1193702e-07
2.0134791e-07
1.1330272e-07
4.9408316e-08
1.8207425e-08
5.809246e-09
1.6340462e-09
4.0576683e-10
8.7111071e-11
1.5467717e-11
2.2094289e-12
4.0129974e-13
2.7633286e-13
2.9306549e-13
4.5504827e-05
1.1517431e-05
2.3805376e-05
3.0509467e-05
1.5525593e-05
8.2108612e-06
4.6454846e-06
2.7330912e-06
1.7153393e-06
1.2823951e-06
1.178746e-06
1.2066697e-06
8.7684607e-07
6.8539714e-07
5.9194428e-07
4.4515987e-07
3.1192632e-07
2.0132464e-07
1.1326675e-07
4.9386421e-08
1.8197613e-08
5.8057528e-09
1.6330071e-09
4.0550211e-10
8.7053659e-11
1.5457475e-11
2.2079442e-12
4.0100739e-13
2.7612016e-13
2.9284005e-13
4.5512016e-05
1.1518909e-05
2.3813019e-05
3.0539628e-05
1.5554111e-05
8.2300659e-06
4.656242e-06
2.7364046e-06
1.7151784e-06
1.2814704e-06
1.1780963e-06
1.2064509e-06
8.7668803e-07
6.855458e-07
5.9199798e-07
4.4517946e-07
3.1191848e-07
2.0130336e-07
1.1323206e-07
4.936515e-08
1.8188051e-08
5.8023445e-09
1.6319928e-09
4.0524378e-10
8.6997648e-11
1.5447485e-11
2.2064935e-12
4.0071883e-13
2.7590884e-13
2.9261605e-13
4.5519028e-05
1.1520287e-05
2.382026e-05
3.0569389e-05
1.5582462e-05
8.2491677e-06
4.6669671e-06
2.7397225e-06
1.7150261e-06
1.2805554e-06
1.1774548e-06
1.2062417e-06
8.7653854e-07
6.8570141e-07
5.9205704e-07
4.4520288e-07
3.1191326e-07
2.0128379e-07
1.1319847e-07
4.9344374e-08
1.8178674e-08
5.7989947e-09
1.6309947e-09
4.0498932e-10
8.6942442e-11
1.5437631e-11
2.2050593e-12
4.0043063e-13
2.7569645e-13
2.9239092e-13
4.5525868e-05
1.1521563e-05
2.3827124e-05
3.0598778e-05
1.5610618e-05
8.2681529e-06
4.6776547e-06
2.7430434e-06
1.7148822e-06
1.2796495e-06
1.1768209e-06
1.2060409e-06
8.7639754e-07
6.8586397e-07
5.9212183e-07
4.4523042e-07
3.1191092e-07
2.0126616e-07
1.1316607e-07
4.9324174e-08
1.8169527e-08
5.7957235e-09
1.6300199e-09
4.0474088e-10
8.6888565e-11
1.5428017e-11
2.2036582e-12
4.0014655e-13
2.7548589e-13
2.921677e-13
4.553254e-05
1.1522735e-05
2.3833609e-05
3.0627745e-05
1.5638575e-05
8.287021e-06
4.6883009e-06
2.7463661e-06
1.7147466e-06
1.2787522e-06
1.1761942e-06
1.2058486e-06
8.762649e-07
6.8603347e-07
5.9219218e-07
4.4526183e-07
3.1191115e-07
2.0125014e-07
1.1313462e-07
4.9304364e-08
1.8160512e-08
5.7924899e-09
1.6290543e-09
4.0449444e-10
8.683506e-11
1.541846e-11
2.2022638e-12
3.9986312e-13
2.7527555e-13
2.919447e-13
4.5539051e-05
1.1523802e-05
2.3839678e-05
3.0656221e-05
1.5666344e-05
8.3057866e-06
4.6989073e-06
2.74969e-06
1.7146194e-06
1.277864e-06
1.1755749e-06
1.2056653e-06
8.7614069e-07
6.8620998e-07
5.9226814e-07
4.4529726e-07
3.119142e-07
2.0123603e-07
1.1310439e-07
4.9285143e-08
1.8151734e-08
5.7893364e-09
1.6281123e-09
4.0425403e-10
8.678288e-11
1.5409142e-11
2.2009017e-12
3.995834e-13
2.7506663e-13
2.9172321e-13
4.5545405e-05
1.1524757e-05
2.3845293e-05
3.0684171e-05
1.5693916e-05
8.3244463e-06
4.7094706e-06
2.7530152e-06
1.7145012e-06
1.2769846e-06
1.1749625e-06
1.2054909e-06
8.7602484e-07
6.8639353e-07
5.9234955e-07
4.4533656e-07
3.1191987e-07
2.0122361e-07
1.1307523e-07
4.9266398e-08
1.814313e-08
5.7862376e-09
1.6271851e-09
4.0401715e-10
8.6731423e-11
1.5399944e-11
2.199554e-12
3.993039e-13
2.748567e-13
2.9150063e-13
4.5551608e-05
1.1525609e-05
2.3850432e-05
3.0711562e-05
1.5721282e-05
8.34299e-06
4.7199873e-06
2.7563422e-06
1.714392e-06
1.2761138e-06
1.1743568e-06
1.2053248e-06
8.7591734e-07
6.8658415e-07
5.9243684e-07
4.4538004e-07
3.1192846e-07
2.0121317e-07
1.1304728e-07
4.9248243e-08
1.8134763e-08
5.7832198e-09
1.6262819e-09
4.0378646e-10
8.6681334e-11
1.5390992e-11
2.1982405e-12
3.9902875e-13
2.7464878e-13
2.9128018e-13
4.5557664e-05
1.1526365e-05
2.3855084e-05
3.0738348e-05
1.5748437e-05
8.361418e-06
4.7304595e-06
2.7596715e-06
1.714292e-06
1.2752513e-06
1.1737571e-06
1.2051662e-06
8.7581803e-07
6.8678185e-07
5.9252984e-07
4.4542745e-07
3.1193962e-07
2.0120433e-07
1.1302028e-07
4.9230475e-08
1.8126526e-08
5.7802381e-09
1.6253874e-09
4.0355757e-10
8.6631567e-11
1.5382088e-11
2.196932e-12
3.9875401e-13