/*--------------------------------*- C++ -*----------------------------------*\
| =========                 |                                                 |
| \\      /  F ield         | OpenFOAM: The Open Source CFD Toolbox           |
|  \\    /   O peration     | Version:  v2012                                 |
|   \\  /    A nd           | Website:  www.openfoam.com                      |
|    \\/     M anipulation  |                                                 |
\*---------------------------------------------------------------------------*/
FoamFile
{
    version     2.0;
    format      ascii;
    class       volScalarField;
    location    "200";
    object      omega;
}
// * * * * * * * * * * * * * * * * * * * * * * * * * * * * * * * * * * * * * //

dimensions      [0 0 -1 0 0 0 0];


internalField   nonuniform List<scalar> 
24000
(
2081.1674
2820.9101
2207.9518
2099.0956
2412.9228
3990.4258
9075.3578
19824.631
42348.367
82847.69
123739.09
147190.61
193946.14
380721.39
709754.04
1166103.3
1649804.8
2177017.4
2837071.4
3809863.2
5412676.7
8199843.7
13195144
22458010
40565099
78980264
1.7137948e+08
4.4225441e+08
1.5492142e+09
1.0456357e+10
2080.0907
2819.5846
2207.307
2099.0888
2411.4569
3975.8775
9041.1376
19765.779
42220.93
82386.441
123177.45
146241.3
190123.49
372302.57
696443.44
1147532.1
1626572.1
2147964.6
2801633.8
3769957.2
5371700.6
8159127.6
13150500
22397127
40462037
78775850
1.7090652e+08
4.4088516e+08
1.5434197e+09
1.0436898e+10
2078.9398
2817.8035
2206.4897
2099.2108
2409.6963
3960.2196
8998.705
19682.134
42048.914
82116.446
123012.63
146082.96
189033.46
369499.62
691591.13
1141291.4
1619917.1
2140919.5
2792667.2
3755995.3
5349374.4
8126450.1
13107223
22343140
40394448
78684804
1.7076866e+08
4.40662e+08
1.5432279e+09
1.0425671e+10
2077.7976
2816.0478
2205.7645
2099.344
2408.3017
3946.0013
8959.4553
19612.455
41944.997
81988.303
122950.23
146095
188957.28
369298.93
691292.54
1141142.9
1620299.7
2142087
2794927.5
3760142.9
5356535.8
8137585
13122974
22364452
40423984
78729689
1.7084714e+08
4.4082284e+08
1.5435992e+09
1.0431216e+10
2076.6649
2814.3107
2205.094
2099.4989
2407.0254
3932.199
8920.4648
19543.42
41843.415
81859.986
122875.19
146070.42
188960.23
369267.89
691113.53
1140754.4
1619635.9
2141088.8
2793613.9
3758379.8
5354170.1
8134573.7
13119404
22360448
40419554
78724566
1.7084066e+08
4.4081491e+08
1.5436078e+09
1.0430701e+10
2075.5411
2812.6212
2204.4747
2099.6688
2405.8693
3918.7887
8881.489
19475.536
41743.174
81737.527
122811.02
146051.73
188982.23
369351.18
691154.92
1140693.8
1619405.3
2140710
2793178
3758025.1
5354052.5
8134833.1
13120165
22361891
40422068
78729105
1.7084976e+08
4.4083649e+08
1.5436747e+09
1.0431277e+10
2074.4267
2810.9695
2203.8946
2099.8532
2404.8058
3905.5415
8842.5548
19408.092
41642.881
81615.913
122747.66
146032.17
189007.98
369453.23
691228.17
1140669.1
1619189.2
2140304.6
2792646.5
3757465.3
5353570.6
8134529.1
13120142
22362292
40423167
78731533
1.7085522e+08
4.4085062e+08
1.5437241e+09
1.0431598e+10
2073.3221
2809.357
2203.3449
2100.0513
2403.8097
3892.5091
8803.6063
19340.89
41542.79
81494.858
122685.44
146014.25
189033.04
369555.63
691308.03
1140658.6
1618993.2
2139924.7
2792148.3
3756953.2
5353157.7
8134317.2
13120226
22362803
40424361
78734012
1.7086059e+08
4.4086417e+08
1.5437697e+09
1.0431925e+10
2072.2277
2807.78
2202.8189
2100.2629
2402.858
3879.7325
8764.6402
19273.657
41443.342
81374.145
122623.83
145996.88
189055.91
369649.66
691377.51
1140637.8
1618791.4
2139543.7
2791650
3756435.2
5352725.1
8134062.5
13120233
22363182
40425326
78736064
1.7086508e+08
4.4087549e+08
1.5438078e+09
1.0432197e+10
2071.1441
2806.2348
2202.3129
2100.4879
2401.9531
3867.2238
8725.6865
19206.435
41344.57
81253.938
122562.92
145980.41
189076.47
369734.02
691433.85
1140603
1618581
2139161
2791154.7
3755919.7
5352287.7
8133788.4
13120196
22363476
40426130
78737802
1.708689e+08
4.408851e+08
1.54384e+09
1.0432431e+10
2070.0716
2804.7169
2201.8247
2100.7262
2401.0974
3854.9957
8686.7799
19139.271
41246.489
81134.433
122502.82
145964.82
189094.95
369809.37
691477.53
1140554.2
1618361.8
2138776.7
2790662.7
3755407.7
5351847.8
8133498.9
13120123
22363698
40426800
78739279
1.7087215e+08
4.4089329e+08
1.5438673e+09
1.0432631e+10
2069.011
2803.2221
2201.3501
2100.9783
2400.2928
3843.0587
8647.9542
19072.211
41149.101
81015.828
122443.66
145950.1
189111.69
369876.95
691510.16
1140493.2
1618134.6
2138390.6
2790174.5
3754900.9
5351409.3
8133201
13120025
22363869
40427373
78740567
1.70875e+08
4.4090045e+08
1.543891e+09
1.0432807e+10
2067.9625
2801.749
2200.8884
2101.2436
2399.5415
3831.421
8609.241
19005.296
41052.399
80898.269
122385.53
145936.22
189126.99
369937.93
691533.19
1140421.2
1617899.9
2138002.2
2789688.3
3754398.3
5350972.8
8132898.6
13119910
22364003
40427869
78741701
1.7087751e+08
4.4090675e+08
1.5439118e+09
1.0432963e+10
2066.9267
2800.297
2200.4388
2101.5215
2398.8455
3820.0881
8570.6676
18938.562
40956.369
80781.862
122328.45
145923.1
189141.06
369993.27
691547.77
1140339.2
1617657.4
2137609.9
2789201.9
3753896.8
5350535.9
8132590.1
13119778
22364101
40428297
78742700
1.7087973e+08
4.4091229e+08
1.5439298e+09
1.0433102e+10
2065.904
2798.8659
2200.001
2101.812
2398.2052
3809.0631
8532.2587
18872.038
40860.993
80666.674
122272.45
145910.65
189154.09
370043.8
691554.96
1140248.2
1617407.7
2137213.1
2788713.2
3753393.8
5350095.5
8132272.4
13119626
22364159
40428648
78743544
1.7088161e+08
4.4091695e+08
1.5439447e+09
1.0433222e+10
2064.8946
2797.4562
2199.5748
2102.1153
2397.6209
3798.3466
8494.0361
18805.747
40766.255
80552.751
122217.51
145898.77
189166.26
370090.2
691555.69
1140149.2
1617151.4
2136811.8
2788221.6
3752887.6
5349649.1
8131942.3
13119450
22364173
40428917
78744227
1.7088315e+08
4.4092071e+08
1.5439565e+09
1.0433321e+10
2063.8989
2796.0684
2199.1601
2102.4315
2397.0924
3787.9376
8456.0194
18739.711
40672.134
80440.115
122163.62
145887.41
189177.7
370133.11
691550.84
1140043.3
1616889.2
2136406.6
2787727.2
3752378.1
5349196.2
8131599.5
13119251
22364143
40429105
78744751
1.7088433e+08
4.4092359e+08
1.5439652e+09
1.04334e+10
2062.9172
2794.7035
2198.7569
2102.7606
2396.6196
3777.8333
8418.2289
18673.95
40578.611
80328.773
122110.77
145876.5
189188.54
370173.07
691541.19
1139931.4
1616622.2
2135998.3
2787231.1
3751866.5
5348738.8
8131246.8
13119032
22364079
40429228
78745151
1.7088526e+08
4.4092579e+08
1.5439714e+09
1.0433463e+10
2061.9498
2793.3623
2198.3653
2103.1027
2396.202
3768.0298
8380.6795
18608.477
40485.67
80218.719
122058.94
145865.97
189198.88
370210.56
691527.46
1139814.4
1616351
2135587.4
2786733.4
3751353.1
5348277.4
8130885.1
13118795
22363981
40429289
78745430
1.7088592e+08
4.4092732e+08
1.5439754e+09
1.0433511e+10
2060.9968
2792.0459
2197.9857
2103.4577
2395.839
3758.5222
8343.385
18543.306
40393.292
80109.938
122008.08
145855.75
189208.8
370245.99
691510.19
1139692.9
1616076.2
2135174.3
2786234.6
3750838.6
5347813
8130516.3
13118544
22363855
40429300
78745609
1.7088637e+08
4.409283e+08
1.5439775e+09
1.0433546e+10
2060.0586
2790.7554
2197.6181
2103.8256
2395.5299
3749.3044
8306.3589
18478.448
40301.462
80002.41
121958.12
145845.76
189218.37
370279.7
691489.87
1139567.4
1615798
2134758.9
2785734.3
3750322.4
5347345
8130140.1
13118279
22363703
40429259
78745689
1.708866e+08
4.4092874e+08
1.5439777e+09
1.0433568e+10
2059.1352
2789.4919
2197.2629
2104.2064
2395.274
3740.3694
8269.6139
18413.914
40210.166
79896.104
121909
145835.94
189227.66
370311.99
691466.85
1139438.4
1615516.9
2134341.5
2785232.8
3749804.8
5346874.2
8129757.7
13118001
22363528
40429177
78745688
1.7088666e+08
4.4092873e+08
1.5439763e+09
1.0433579e+10
2058.2269
2788.2563
2196.9204
2104.6
2395.0702
3731.7097
8233.1617
18349.717
40119.388
79790.986
121860.65
145826.22
189236.68
370343.08
691441.46
1139306.2
1615232.9
2133922.1
2784729.7
3749285.2
5346399.5
8129367.5
13117709
22363327
40429046
78745590
1.7088651e+08
4.4092819e+08
1.5439731e+09
1.0433578e+10
2057.3337
2787.0497
2196.5909
2105.0064
2394.9177
3723.3174
8197.0129
18285.867
40029.117
79687.021
121813.04
145816.53
189245.49
370373.18
691413.97
1139171
1614946.3
2133500.9
2784225.4
3748764.1
5345921.9
8128971.1
13117404
22363102
40428872
78745409
1.7088618e+08
4.4092719e+08
1.5439684e+09
1.0433566e+10
2056.4559
2785.8731
2196.2746
2105.4255
2394.8153
3715.1841
8161.1777
18222.372
39939.343
79584.173
121766.12
145806.8
189254.08
370402.42
691384.57
1139033.2
1614657.4
2133077.7
2783719.1
3748240.4
5345439.8
8128566.7
13117085
22362852
40428650
78745137
1.7088566e+08
4.409257e+08
1.5439619e+09
1.0433543e+10
2055.5933
2784.7274
2195.9719
2105.8571
2394.7619
3707.3013
8125.665
18159.242
39850.058
79482.407
121719.84
145796.98
189262.5
370430.98
691353.52
1138893.1
1614366.5
2132653
2783211.7
3747715.3
5344955
8128156.8
13116756
22362583
40428394
78744796
1.7088498e+08
4.4092384e+08
1.5439542e+09
1.043351e+10
2054.7463
2783.6133
2195.6829
2106.3011
2394.7564
3699.6604
8090.4833
18096.484
39761.256
79381.689
121674.11
145787.01
189270.77
370458.99
691321.02
1138751
1614073.7
2132226.8
2782702.8
3747188
5344465.9
8127738.9
13116412
22362289
40428092
78744367
1.7088412e+08
4.4092149e+08
1.5439448e+09
1.0433466e+10
2053.9147
2782.5318
2195.4081
2106.7573
2394.7975
3692.253
8055.6398
18034.108
39672.934
79281.982
121628.84
145776.85
189278.88
370486.55
691287.2
1138607
1613779.3
2131799.4
2782192.9
3746659.1
5343974
8127315.3
13116058
22361975
40427753
78743865
1.7088311e+08
4.4091876e+08
1.5439341e+09
1.0433413e+10
2053.0986
2781.4837
2195.1474
2107.2256
2394.8839
3685.0703
8021.1414
17972.124
39585.091
79183.257
121584.01
145766.44
189286.86
370513.75
691252.19
1138461.3
1613483.5
2131370.6
2781681.2
3746127.5
5343477.4
8126883.7
13115690
22361636
40427369
78743279
1.7088191e+08
4.4091557e+08
1.5439219e+09
1.0433348e+10
2052.298
2780.4696
2194.901
2107.7055
2395.0141
3678.1041
7986.9946
17910.541
39497.726
79085.49
121539.59
145755.74
189294.73
370540.72
691216.2
1138314.2
1613186.6
2130941.2
2781168.8
3745594.7
5342978.2
8126447
13115312
22361281
40426957
78742637
1.708806e+08
4.4091208e+08
1.5439086e+09
1.0433276e+10
2051.5129
2779.4901
2194.669
2108.1969
2395.1867
3671.3459
7953.2047
17849.369
39410.843
78988.658
121495.63
145744.73
189302.52
370567.59
691179.41
1138166
1612888.8
2130511.2
2780655.7
3745059.9
5342474.9
8126002.9
13114922
22360904
40426504
78741919
1.7087912e+08
4.4090819e+08
1.543894e+09
1.0433195e+10
2050.7433
2778.5458
2194.4515
2108.6994
2395.4003
3664.7879
7919.777
17788.618
39324.445
78892.737
121452.06
145733.37
189310.22
370594.48
691142
1138016.9
1612590.7
2130081.3
2780142.7
3744524.9
5341970
8125554.8
13114524
22360513
40426025
78741148
1.7087754e+08
4.4090402e+08
1.5438785e+09
1.0433106e+10
2049.9892
2777.6372
2194.2484
2109.2125
2395.653
3658.4221
7886.7162
17728.297
39238.54
78797.699
121408.75
145721.63
189317.84
370621.43
691104
1137867
1612292
2129650.9
2779629.1
3743988.3
5341461.7
8125100.2
13114114
22360101
40425511
78740312
1.7087581e+08
4.4089951e+08
1.5438619e+09
1.0433008e+10
2049.2504
2776.7647
2194.0596
2109.7358
2395.9434
3652.2409
7854.0265
17668.418
39153.135
78703.522
121365.65
145709.46
189325.38
370648.5
691065.54
1137716.3
1611993
2129220.9
2779116
3743451.8
5340952.8
8124643.6
13113700
22359681
40424980
78739442
1.7087401e+08
4.4089481e+08
1.5438446e+09
1.0432906e+10
2048.5269
2775.9287
2193.8848
2110.2688
2396.2695
3646.2369
7821.7116
17608.99
39068.242
78610.191
121322.76
145696.85
189332.85
370675.72
691026.61
1137565
1611693.6
2128790.7
2778602.5
3742914
5340440.5
8124180.5
13113275
22359242
40424415
78738509
1.7087208e+08
4.4088978e+08
1.5438262e+09
1.0432795e+10
2047.8186
2775.1291
2193.7239
2110.8108
2396.6295
3640.403
7789.7747
17550.023
38983.873
78517.687
121280.08
145683.77
189340.22
370703.13
690987.31
1137413
1611394.1
2128360.8
2778089.5
3742376.4
5339927.6
8123714.9
13112844
22358792
40423830
78737535
1.7087007e+08
4.4088454e+08
1.5438072e+09
1.0432679e+10
2047.1254
2774.3662
2193.5768
2111.3612
2397.0214
3634.7321
7758.2186
17491.528
38900.045
78425.994
121237.56
145670.19
189347.51
370730.73
690947.6
1137260.3
1611094
2127930.6
2777576
3741837.5
5339411.4
8123243.2
13112402
22358323
40423212
78736500
1.7086792e+08
4.4087899e+08
1.5437871e+09
1.0432555e+10
2046.4472
2773.6404
2193.4429
2111.9192
2397.4433
3629.2175
7727.0456
17433.517
38816.775
78335.093
121195.17
145656.08
189354.7
370758.55
690907.55
1137107.1
1610793.7
2127500.6
2777063.1
3741299
5338895.4
8122770.6
13111958
22357848
40422581
78735438
1.7086572e+08
4.4087327e+08
1.5437665e+09
1.0432427e+10
2045.7839
2772.9515
2193.3217
2112.4839
2397.8929
3623.8526
7696.2577
17376.002
38734.083
78244.963
121152.86
145641.42
189361.78
370786.55
690867.04
1136952.9
1610492.7
2127070
2776549.2
3740758.6
5338375.4
8122290.7
13111501
22357352
40421912
78734305
1.7086336e+08
4.4086719e+08
1.5437446e+09
1.043229e+10
2045.1353
2772.2994
2193.2127
2113.0544
2398.3681
3618.6309
7665.8567
17318.992
38651.992
78155.584
121110.68
145626.19
189368.74
370814.74
690826.11
1136798.1
1610191.1
2126639.3
2776035.3
3740217.9
5337854.1
8121807.6
13111037
22356843
40421220
78733126
1.7086091e+08
4.4086086e+08
1.543722e+09
1.0432146e+10
2044.5014
2771.6836
2193.1154
2113.6299
2398.8665
3613.5464
7635.8443
17262.497
38570.529
78066.931
121068.64
145610.38
189375.57
370843.13
690784.73
1136642.3
1609888.8
2126207.7
2775520.2
3739674.8
5337328.3
8121316.7
13110560
22356312
40420489
78731875
1.7085831e+08
4.4085416e+08
1.5436981e+09
1.0431993e+10
2043.8819
2771.1041
2193.0294
2114.2091
2399.3856
3608.5928
7606.2211
17206.527
38489.726
77978.98
121026.7
145593.96
189382.28
370871.78
690743.05
1136486
1609586.2
2125776.4
2775005.6
3739132.1
5336802.5
8120824.6
13110080
22355775
40419745
78730595
1.7085564e+08
4.4084729e+08
1.5436736e+09
1.0431836e+10
2043.2767
2770.5608
2192.9539
2114.7909
2399.923
3603.7641
7576.9876
17151.09
38409.608
77891.72
120984.82
145576.9
189388.84
370900.63
690700.95
1136328.9
1609282.8
2125344.3
2774489.8
3738587.3
5336272.3
8120324.6
13109587
22355214
40418959
78729236
1.7085281e+08
4.4084001e+08
1.5436478e+09
1.0431669e+10
2042.6856
2770.0536
2192.8883
2115.374
2400.4761
3599.0546
7548.1441
17096.196
38330.127
77805.266
120942.89
145559.18
189395.25
370929.66
690658.41
1136170.9
1608978.8
2124911.8
2773973.9
3738042
5335740.8
8119821.5
13109087
22354640
40418149
78727830
1.7084987e+08
4.4083247e+08
1.5436211e+09
1.0431494e+10
2042.1085
2769.582
2192.8314
2115.9572
2401.0421
3594.4582
7519.6903
17041.849
38251.28
77719.67
120901.02
145540.78
189401.48
370958.85
690615.34
1136011.9
1608673.6
2124478.1
2773456.1
3737493.7
5335204
8119309.5
13108572
22354041
40417295
78726343
1.7084677e+08
4.4082452e+08
1.5435931e+09
1.043131e+10
2041.5452
2769.1456
2192.7823
2116.539
2401.6184
3589.9693
7491.6257
16988.06
38173.078
77634.943
120859.24
145521.69
189407.54
370988.24
690571.91
1135852.2
1608368.1
2124044.3
2772938.5
3736945.3
5334666.7
8118795.7
13108053
22353435
40416426
78724823
1.7084359e+08
4.4081638e+08
1.5435644e+09
1.0431121e+10
2040.9956
2768.7438
2192.7397
2117.1181
2402.2021
3585.5821
7463.9491
16934.835
38095.539
77551.09
120817.53
145501.89
189413.41
371017.83
690528.06
1135691.7
1608061.7
2123609.6
2772419.5
3736394.2
5334124.2
8118272.9
13107519
22352802
40415511
78723218
1.7084024e+08
4.408078e+08
1.5435342e+09
1.0430921e+10
2040.4594
2768.3762
2192.704
2117.6929
2402.7904
3581.291
7436.6591
16882.182
38018.677
77468.11
120775.88
145481.36
189419.11
371047.64
690483.86
1135530.5
1607754.8
2123174.7
2771900.3
3735842.7
5333580.3
8117746.7
13106978
22352157
40414571
78721564
1.7083678e+08
4.4079894e+08
1.5435032e+09
1.0430713e+10
2039.9365
2768.0422
2192.6741
2118.262
2403.3802
3577.0905
7409.7541
16830.106
37942.505
77386.007
120734.29
145460.09
189424.61
371077.63
690439.24
1135368.4
1607446.9
2122738.6
2771379.3
3735288
5333030.8
8117211.1
13106421
22351485
40413587
78719825
1.7083314e+08
4.4078966e+08
1.5434707e+09
1.0430496e+10
2039.4267
2767.7412
2192.6493
2118.8239
2403.9686
3572.9751
7383.2319
16778.613
37867.031
77304.782
120692.75
145438.04
189429.91
371107.87
690394.36
1135205.9
1607138.8
2122302.6
2770858.5
3734733.3
5332481
8116674.1
13105862
22350806
40412587
78718055
1.7082943e+08
4.4078019e+08
1.5434376e+09
1.0430273e+10
2038.9299
2767.4726
2192.6287
2119.3769
2404.5526
3568.9393
7357.0897
16727.707
37792.267
77224.435
120651.24
145415.21
189435
371138.31
690349.08
1135042.5
1606829.9
2121865.6
2770336.2
3734175.7
5331925.6
8116127.5
13105286
22350101
40411540
78716196
1.7082554e+08
4.4077026e+08
1.5434029e+09
1.0430039e+10
2038.4457
2767.2359
2192.6115
2119.9196
2405.1293
3564.9777
7331.3246
16677.392
37718.22
77144.968
120609.75
145391.57
189439.86
371168.93
690303.43
1134878.5
1606520.5
2121428.4
2769813.7
3733617.7
5331368.7
8115577.4
13104702
22349381
40410466
78714285
1.7082153e+08
4.4076004e+08
1.5433673e+09
1.0429797e+10
2037.9741
2767.0303
2192.5967
2120.4504
2405.6957
3561.085
7305.9327
16627.669
37644.899
77066.379
120568.28
145367.11
189444.48
371199.71
690257.33
1134713.6
1606210.1
2120990
2769289.3
3733056.2
5330806
8115017.3
13104103
22348634
40409345
78712285
1.7081734e+08
4.4074938e+08
1.5433303e+09
1.0429545e+10
2037.5148
2766.8551
2192.5837
2120.9677
2406.249
3557.2561
7280.9101
16578.541
37572.31
76988.66
120526.81
145341.79
189448.87
371230.69
690210.93
1134548.2
1605899.4
2120551.6
2768765.2
3732494.9
5330242.8
8114455.7
13103499
22347879
40408207
78710250
1.7081307e+08
4.4073849e+08
1.5432924e+09
1.0429287e+10
2037.0676
2766.7098
2192.5715
2121.47
2406.7862
3553.4859
7256.2524
16530.008
37500.454
76911.805
120485.32
145315.61
189453
371261.81
690164.07
1134381.9
1605587.8
2120112.2
2768239.3
3731930.4
5329673.8
8113884
13102879
22347095
40407020
78708122
1.7080861e+08
4.4072714e+08
1.5432531e+09
1.0429017e+10
2036.6324
2766.5934
2192.5595
2121.9559
2407.3048
3549.7697
7231.9553
16482.069
37429.332
76835.808
120443.79
145288.54
189456.87
371293.09
690116.83
1134214.9
1605275.8
2119672.5
2767713.2
3731365.3
5329103.1
8113308.4
13102251
22346296
40405804
78705938
1.7080402e+08
4.4071547e+08
1.5432126e+09
1.042874e+10
2036.2089
2766.5055
2192.5468
2122.424
2407.802
3546.1027
7208.0141
16434.723
37358.943
76760.659
120402.21
145260.56
189460.47
371324.5
690069.12
1134047.1
1604962.7
2119231.4
2767185
3730796.5
5328526.2
8112722.6
13101606
22345470
40404540
78703665
1.7079925e+08
4.4070335e+08
1.5431707e+09
1.0428451e+10
2035.7969
2766.4451
2192.533
2122.8731
2408.2755
3542.4804
7184.4239
16387.967
37289.289
76686.35
120360.56
145231.66
189463.81
371356.12
690021.15
1133878.9
1604649.5
2118790.6
2766657.1
3730227.9
5327948.8
8112135
13100957
22344635
40403258
78701353
1.7079439e+08
4.4069099e+08
1.5431279e+09
1.0428156e+10
2035.3962
2766.4117
2192.5172
2123.3018
2408.723
3538.8989
7161.1793
16341.799
37220.366
76612.863
120318.82
145201.82
189466.86
371387.87
689972.75
1133709.8
1604335.4
2118348.7
2766127.5
3729655.9
5327365.4
8111537
13100291
22343770
40401925
78698945
1.7078933e+08
4.4067815e+08
1.5430836e+09
1.0427849e+10
2035.0066
2766.4043
2192.499
2123.709
2409.1424
3535.3543
7138.275
16296.214
37152.169
76540.184
120276.97
145171.01
189469.61
371419.75
689923.92
1133540.1
1604020.8
2117906.4
2765597.5
3729083.3
5326780.1
8110934.8
13099616
22342890
40400561
78696477
1.7078414e+08
4.4066497e+08
1.5430381e+09
1.0427534e+10
2034.6278
2766.4223
2192.4778
2124.0938
2409.5318
3531.8431
7115.7059
16251.207
37084.691
76468.295
120234.99
145139.22
189472.06
371451.72
689874.55
1133369.5
1603705
2117462.6
2765065.2
3728506.8
5326188.4
8110321.9
13098923
22341980
40399147
78693915
1.7077876e+08
4.4065132e+08
1.542991e+09
1.0427207e+10
2034.2595
2766.4648
2192.4532
2124.4554
2409.8896
3528.3622
7093.4666
16206.774
37017.925
76397.18
120192.86
145106.43
189474.2
371483.84
689824.85
1133198.3
1603389
2117018.8
2764532.8
3727929.8
5325595.5
8109706.5
13098226
22341060
40397711
78691309
1.7077328e+08
4.4063739e+08
1.542943e+09
1.0426874e+10
2033.9016
2766.5312
2192.4248
2124.7928
2410.2143
3524.9087
7071.5519
16162.909
36951.862
76326.817
120150.55
145072.62
189476.02
371516.06
689774.66
1133026.4
1603072.3
2116573.9
2763998.5
3727349.2
5324996
8109080
13097510
22340110
40396223
78688604
1.7076759e+08
4.4062296e+08
1.5428933e+09
1.0426528e+10
2033.5538
2766.6204
2192.3923
2125.1055
2410.5048
3521.4804
7049.9569
16119.607
36886.495
76257.182
120108.04
145037.78
189477.52
371548.42
689724.11
1132854
1602755.3
2116128.9
2763464.1
3726768
5324394.6
8108449.1
13096785
22339143
40394704
78685838
1.7076177e+08
4.406082e+08
1.5428426e+09
1.0426173e+10
2033.2158
2766.7318
2192.3553
2125.3931
2410.7601
3518.0753
7028.6772
16076.861
36821.811
76188.252
120065.31
145001.88
189478.68
371580.87
689673.06
1132680.8
1602437.4
2115682.8
2762927.6
3726183.1
5323786.9
8107807.6
13096043
22338147
40393135
78682979
1.7075575e+08
4.4059296e+08
1.5427902e+09
1.0425807e+10
2032.8873
2766.8645
2192.3137
2125.6551
2410.9797
3514.6921
7007.7085
16034.666
36757.799
76119.999
120022.33
144964.91
189479.51
371613.47
689621.68
1132507.2
1602119.5
2115237
2762391.5
3725598.3
5323178.5
8107164.1
13095297
22337142
40391545
78680077
1.7074964e+08
4.4057745e+08
1.5427369e+09
1.0425434e+10
2032.568
2767.0176
2192.2673
2125.8914
2411.1631
3511.3295
6987.0473
15993.016
36694.445
76052.392
119979.06
144926.83
189479.97
371646.12
689569.71
1132332.7
1601800.8
2114790.1
2761853.5
3725009.8
5322563.6
8106509.5
13094531
22336105
40389902
78677074
1.7074331e+08
4.4056143e+08
1.5426818e+09
1.0425049e+10
2032.2577
2767.1902
2192.2161
2126.1019
2411.3101
3507.987
6966.6906
15951.905
36631.735
75985.404
119935.47
144887.63
189480.06
371678.82
689517.21
1132157.6
1601481.6
2114343
2761315.4
3724420.9
5321946.9
8105850.7
13093758
22335052
40388227
78674010
1.7073686e+08
4.4054507e+08
1.5426257e+09
1.0424655e+10
2031.9559
2767.3814
2192.1599
2126.2866
2411.4209
3504.6644
6946.6356
15911.328
36569.655
75919.005
119891.54
144847.29
189479.76
371711.51
689463.98
1131981.3
1601161.2
2113894.4
2760774.7
3723827.6
5321323.1
8105180.1
13092965
22333968
40386499
78670844
1.7073019e+08
4.4052819e+08
1.5425678e+09
1.0424249e+10
2031.6625
2767.5904
2192.0988
2126.4457
2411.4957
3501.3621
6926.8803
15871.279
36508.193
75853.161
119847.23
144805.79
189479.08
371744.28
689410.29
1131804.5
1600840.7
2113446
2760234.4
3723234.3
5320698.6
8104507.7
13092168
22332874
40384750
78667636
1.7072343e+08
4.4051104e+08
1.5425089e+09
1.0423836e+10
2031.3771
2767.8161
2192.0328
2126.5795
2411.5353
3498.0805
6907.423
15831.756
36447.335
75787.838
119802.52
144763.11
189477.98
371777.05
689355.89
1131626.6
1600519.3
2112996.5
2759692
3722637.1
5320067
8103823.2
13091351
22331747
40382944
78664322
1.7071644e+08
4.4049336e+08
1.5424483e+09
1.042341e+10
2031.0992
2768.0576
2191.9619
2126.6885
2411.5403
3494.8208
6888.2631
15792.755
36387.069
75723.005
119757.37
144719.21
189476.47
371809.83
689300.85
1131448
1600197.5
2112546.9
2759149.7
3722039.6
5319433.8
8103134.6
13090526
22330604
40381108
78660947
1.7070932e+08
4.4047533e+08
1.5423865e+09
1.0422975e+10
2030.8287
2768.314
2191.8864
2126.7731
2411.5119
3491.5841
6869.4005
15754.274
36327.381
75658.627
119711.73
144674.08
189474.53
371842.57
689245
1131268.1
1599874.4
2112095.7
2758604.8
3721437.8
5318793.4
8102434.1
13089681
22329430
40379217
78657470
1.7070199e+08
4.4045678e+08
1.542323e+09
1.0422528e+10
2030.5651
2768.5842
2191.8063
2126.8341
2411.4511
3488.3722
6850.8356
15716.314
36268.26
75594.671
119665.59
144627.7
189472.16
371875.35
689188.57
1131087.6
1599551.2
2111644.9
2758060.6
3720836.4
5318153.1
8101733
13088834
22328248
40377309
78653956
1.7069457e+08
4.4043799e+08
1.5422586e+09
1.0422075e+10
2030.3081
2768.8673
2191.7217
2126.8721
2411.3593
3485.1867
6832.5693
15678.872
36209.695
75531.102
119618.9
144580.03
189469.34
371908.07
689131.27
1130905.8
1599226.7
2111192.7
2757514
3720230.8
5317505.3
8101019.1
13087966
22327032
40375342
78650332
1.7068693e+08
4.4041864e+08
1.5421923e+09
1.0421608e+10
2030.0573
2769.1623
2191.633
2126.8881
2411.2381
3482.03
6814.6033
15641.95
36151.677
75467.886
119571.62
144531.04
189466.05
371940.74
689073.15
1130722.8
1598901.5
2110740.2
2756967.3
3719624.6
5316855.6
8100300.9
13087089
22325799
40373343
78646644
1.7067914e+08
4.4039894e+08
1.5421248e+09
1.0421132e+10
2029.8124
2769.4682
2191.5402
2126.8827
2411.089
3478.9043
6796.9396
15605.551
36094.199
75404.993
119523.72
144480.73
189462.28
371973.32
689014.04
1130538.4
1598574.8
2110285.9
2756417.9
3719013.9
5316198
8099569.7
13086191
22324532
40371286
78642848
1.7067114e+08
4.4037868e+08
1.5420556e+09
1.0420643e+10
2029.5731
2769.784
2191.4437
2126.8571
2410.9138
3475.812
6779.5809
15569.676
36037.259
75342.39
119475.17
144429.05
189458.04
372005.91
688954.24
1130353
1598247.8
2109832
2755869.3
3718403.9
5315540.9
8098838.1
13085291
22323258
40369213
78639017
1.7066304e+08
4.4035819e+08
1.5419854e+09
1.0420148e+10
2029.3389
2770.1087
2191.3436
2126.8122
2410.7143
3472.7557
6762.5301
15534.33
35980.849
75280.048
119425.91
144375.97
189453.31
372038.41
688893.46
1130166.1
1597919.2
2109376.5
2755318.4
3717790
5314876.7
8098094.2
13084370
22321950
40367080
78635076
1.7065472e+08
4.4033715e+08
1.5419134e+09
1.041964e+10
2029.1095
2770.4414
2191.2402
2126.7492
2410.4923
3469.7378
6745.7902
15499.519
35924.97
75217.94
119375.93
144321.47
189448.07
372070.85
688831.76
1129977.9
1597589.5
2108920.3
2754767.3
3717175.8
5314211.4
8097347
13083442
22320627
40364919
78631075
1.7064627e+08
4.4031576e+08
1.5418403e+09
1.0419123e+10
2028.8847
2770.7812
2191.1338
2126.6691
2410.2498
3466.7609
6729.3644
15465.248
35869.622
75156.037
119325.16
144265.5
189442.3
372103.12
688768.9
1129787.7
1597257.6
2108461.6
2754212.7
3716556.5
5313537.8
8096586.7
13082492
22319269
40362698
78626965
1.706376e+08
4.4029382e+08
1.5417653e+09
1.0418593e+10
2028.664
2771.1272
2191.0246
2126.5729
2409.9885
3463.8274
6713.2558
15431.522
35814.807
75094.317
119273.57
144208.05
189436.02
372135.35
688705.22
1129596.3
1596924.9
2108002.4
2753658.1
3715937.2
5312864.3
8095826
13081541
22317906
40360461
78622818
1.7062883e+08
4.4027163e+08
1.5416894e+09
1.0418057e+10
2028.4472
2771.4785
2190.9128
2126.4619
2409.7104
3460.9396
6697.4675
15398.35
35760.533
75032.756
119221.12
144149.08
189429.21
372167.47
688640.43
1129403.2
1596590.2
2107541.1
2753100.4
3715313
5312182.4
8095051.4
13080567
22316505
40358161
78618555
1.7061982e+08
4.4024885e+08
1.5416115e+09
1.0417507e+10
2028.234
2771.8342
2190.7987
2126.3372
2409.4173
3458.0998
6682.0026
15365.738
35706.806
74971.336
119167.77
144088.56
189421.86
372199.51
688574.69
1129208.7
1596254.4
2107078.9
2752542
3714687.7
5311498.6
8094272.6
13079585
22315088
40355830
78614228
1.7061067e+08
4.4022571e+08
1.5415325e+09
1.0416947e+10
2028.024
2772.1935
2190.6825
2126.1997
2409.1112
3455.3101
6666.8642
15333.695
35653.638
74910.041
119113.49
144026.47
189413.98
372231.44
688507.81
1129012.3
1595916.5
2106614.2
2751980
3714057
5310805.9
8093479.8
13078580
22313634
40353437
78609786
1.7060129e+08
4.4020199e+08
1.5414515e+09
1.0416373e+10
2027.8171
2772.5557
2190.5645
2126.0506
2408.7939
3452.5724
6652.055
15302.229
35601.041
74848.857
119058.24
143962.77
189405.57
372263.37
688440.12
1128814.7
1595577.7
2106149.2
2751418.2
3713426.5
5310113.3
8092686.3
13077573
22312174
40351027
78605307
1.7059182e+08
4.4017801e+08
1.5413696e+09
1.0415794e+10
2027.613
2772.9201
2190.4449
2125.8911
2408.467
3449.8887
6637.5776
15271.347
35549.025
74787.773
119001.96
143897.42
189396.62
372295.2
688371.3
1128615.3
1595237
2105681.9
2750853.3
3712791.1
5309412.3
8091879
13076543
22310676
40348553
78600710
1.705821e+08
4.4015345e+08
1.5412857e+09
1.0415199e+10
2027.4114
2773.2859
2190.3238
2125.7221
2408.1322
3447.2605
6623.4337
15241.057
35497.607
74726.78
118944.61
143830.4
189387.12
372327
688301.48
1128414.4
1594895
2105213.7
2750287.5
3712154.6
5308709.4
8091067.5
13075505
22309163
40346048
78596050
1.7057224e+08
4.4012852e+08
1.5412006e+09
1.0414596e+10
2027.2123
2773.6527
2190.2016
2125.5447
2407.7911
3444.6891
6609.6252
15211.365
35446.803
74665.872
118886.16
143761.69
189377.08
372358.71
688230.5
1128211.5
1594550.7
2104742.7
2749717.9
3711512.4
5307997.6
8090242.2
13074445
22307613
40343482
78591277
1.7056216e+08
4.4010304e+08
1.5411136e+09
1.0413979e+10
2027.0153
2774.02
2190.0784
2125.36
2407.4451
3442.1757
6596.153
15182.28
35396.629
74605.046
118826.56
143691.27
189366.52
372390.5
688158.73
1128007.5
1594205.6
2104271.4
2749148.4
3710870.2
5307285.6
8089415.9
13073382
22306057
40340899
78586467
1.7055198e+08
4.4007729e+08
1.5410258e+09
1.0413355e+10
2026.8204
2774.3871
2189.9544
2125.1688
2407.0957
3439.7213
6583.0173
15153.804
35347.103
74544.301
118765.75
143619.09
189355.43
372422.28
688085.9
1127801.7
1593858.5
2103797.8
2748575.8
3710223.2
5306565.3
8088575.9
13072297
22304463
40338254
78581541
1.7054157e+08
4.4005097e+08
1.540936e+09
1.0412718e+10
2026.6274
2774.7538
2189.8298
2124.972
2406.7441
3437.3267
6570.2179
15125.945
35298.244
74483.646
118703.68
143545.15
189343.8
372454.1
688012.13
1127594.4
1593510.1
2103323.3
2748002.5
3709575.2
5305843.2
8087731.9
13071203
22302854
40335578
78576553
1.7053101e+08
4.400243e+08
1.540845e+09
1.0412071e+10
2026.4362
2775.1197
2189.7047
2124.7706
2406.3915
3434.9923
6557.754
15098.705
35250.067
74423.092
118640.27
143469.43
189331.65
372485.92
687937.22
1127385.1
1593159.3
2102846
2747425.5
3708921.9
5305112.7
8086874.7
13070089
22301210
40332842
78571455
1.7052023e+08
4.3999707e+08
1.5407523e+09
1.0411411e+10
2026.2467
2775.4844
2189.5794
2124.5654
2406.0391
3432.7185
6545.6243
15072.088
35202.589
74362.663
118575.45
143391.92
189318.98
372517.85
687861.49
1127174.5
1592807.4
2102367.9
2746847.9
3708268
5304381.3
8086015.5
13068970
22299557
40330086
78566313
1.7050935e+08
4.3996957e+08
1.5406585e+09
1.0410744e+10
2026.0588
2775.8478
2189.454
2124.357
2405.6879
3430.5055
6533.8266
15046.095
35155.828
74302.393
118509.08
143312.61
189305.8
372549.85
687784.74
1126962.1