/*--------------------------------*- C++ -*----------------------------------*\
| =========                 |                                                 |
| \\      /  F ield         | OpenFOAM: The Open Source CFD Toolbox           |
|  \\    /   O peration     | Version:  v2012                                 |
|   \\  /    A nd           | Website:  www.openfoam.com                      |
|    \\/     M anipulation  |                                                 |
\*---------------------------------------------------------------------------*/
FoamFile
{
    version     2.0;
    format      ascii;
    class       surfaceScalarField;
    location    "200";
    object      phi;
}
// * * * * * * * * * * * * * * * * * * * * * * * * * * * * * * * * * * * * * //

dimensions      [1 0 -1 0 0 0 0];
oriented        oriented;


internalField   nonuniform List<scalar> 
47170
(
3.2736504e-09
-3.5528264e-05
7.5437765e-09
-2.9560029e-05
1.0404585e-08
-2.4191327e-05
1.3048806e-08
-1.9870502e-05
1.5958086e-08
-1.626577e-05
1.7788598e-08
-1.307503e-05
1.7352763e-08
-1.0148736e-05
1.2004436e-08
-7.452395e-06
6.8764517e-10
-5.0463311e-06
-1.0082369e-08
-3.1361394e-06
-1.4725489e-08
-1.9113472e-06
-1.5496572e-08
-1.2321489e-06
-1.4654224e-08
-8.3915585e-07
-1.3049482e-08
-5.8416172e-07
-1.1147653e-08
-4.096738e-07
-9.2227206e-09
-2.8723723e-07
-7.4376521e-09
-1.9999807e-07
-5.8715969e-09
-1.3816205e-07
-4.5440417e-09
-9.4699722e-08
-3.4373029e-09
-6.4389913e-08
-2.5277533e-09
-4.3411769e-08
-1.7943694e-09
-2.8989147e-08
-1.2205268e-09
-1.9127653e-08
-7.881255e-10
-1.242177e-08
-4.7679122e-10
-7.8917662e-09
-2.6414223e-10
-4.8576386e-09
-1.2832489e-10
-2.8483077e-09
-4.9454219e-11
-1.5378369e-09
-1.0905273e-11
-7.0098911e-10
-1.8223861e-10
3.1292922e-09
-3.5531394e-05
5.9815636e-09
-2.9562881e-05
7.1250165e-09
-2.4192471e-05
7.334819e-09
-1.9870712e-05
6.7481726e-09
-1.6265184e-05
5.1826856e-09
-1.3073465e-05
2.9116505e-09
-1.0146466e-05
-2.1143156e-11
-7.4494622e-06
-3.0985029e-09
-5.0432547e-06
-4.8229375e-09
-3.1344148e-06
-5.1760591e-09
-1.9109949e-06
-5.2585369e-09
-1.2320661e-06
-5.1385241e-09
-8.3927645e-07
-4.8560782e-09
-5.844438e-07
-4.4790315e-09
-4.1005123e-07
-4.0255626e-09
-2.876903e-07
-3.527833e-09
-2.0049601e-07
-3.0007498e-09
-1.3868875e-07
-2.4632605e-09
-9.5237297e-08
-1.9415294e-09
-6.4911319e-08
-1.4651079e-09
-4.3888207e-08
-1.0549786e-09
-2.9399041e-08
-7.2223745e-10
-1.9460386e-08
-4.6667702e-10
-1.2677177e-08
-2.8122157e-10
-8.0771708e-09
-1.5440526e-10
-4.984378e-09
-7.3747208e-11
-2.9288682e-09
-2.7523547e-11
-1.5839728e-09
-5.7012482e-12
-7.2274946e-10
-1.8793986e-10
2.8850412e-09
-3.5534278e-05
5.0151906e-09
-2.9565011e-05
5.4795758e-09
-2.4192935e-05
5.0669901e-09
-1.98703e-05
3.9888773e-09
-1.6264106e-05
2.4501127e-09
-1.3071926e-05
1.0450437e-09
-1.0145061e-05
8.4385348e-11
-7.4485014e-06
-1.7857894e-10
-5.0429922e-06
-1.4757104e-10
-3.1344455e-06
-1.4616588e-10
-1.9109968e-06
-1.2117652e-10
-1.2320908e-06
-6.4585703e-12
-8.3939155e-07
1.8636468e-10
-5.8463625e-07
4.0851941e-10
-4.102737e-07
6.1253165e-10
-2.8789393e-07
7.5263097e-10
-2.0063634e-07
8.0791606e-10
-1.3874367e-07
7.8127829e-10
-9.5210779e-08
6.9324284e-10
-6.4822989e-08
5.6952517e-10
-4.376453e-08
4.3642989e-10
-2.926574e-08
3.1255387e-10
-1.9336503e-08
2.0895198e-10
-1.257345e-08
1.2914772e-10
-7.9973346e-09
7.2348888e-11
-4.9275185e-09
3.5140721e-11
-2.891624e-09
1.3339857e-11
-1.5621345e-09
2.8366252e-12
-7.1221972e-10
-1.8510323e-10
2.5609009e-09
-3.5536839e-05
4.1063315e-09
-2.9566556e-05
4.1005272e-09
-2.4192929e-05
3.3185633e-09
-1.9869518e-05
2.0597653e-09
-1.6262848e-05
7.0756733e-10
-1.3070574e-05
1.6509295e-11
-1.014437e-05
2.0240133e-10
-7.4486871e-06
7.979013e-10
-5.043588e-06
9.9508842e-10
-3.1346425e-06
8.4906692e-10
-1.9108511e-06
6.2612291e-10
-1.2318675e-06
4.2036402e-10
-8.3918613e-07
2.6344566e-10
-5.8447902e-07
1.5077273e-10
-4.1016133e-07
6.6989764e-11
-2.8780983e-07
1.082258e-12
-2.0057066e-07
-4.673041e-11
-1.3869555e-07
-7.649929e-11
-9.518115e-08
-8.7751979e-11
-6.4811476e-08
-8.4548984e-11
-4.3767793e-08
-7.1767817e-11
-2.9278331e-08
-5.5307233e-11
-1.935298e-08
-3.8869906e-11
-1.2589771e-08
-2.4990813e-11
-8.011198e-09
-1.4405555e-11
-4.9380419e-09
-7.1758342e-12
-2.898829e-09
-2.7782143e-12
-1.5664997e-09
-5.9581122e-13
-7.1437924e-10
-1.8569904e-10
2.2441706e-09
-3.5539083e-05
3.4045505e-09
-2.9567717e-05
3.1437735e-09
-2.4192669e-05
2.2342063e-09
-1.9868608e-05
9.9846523e-10
-1.6261612e-05
-1.2496446e-10
-1.306945e-05
-3.9338755e-10
-1.0144102e-05
2.3391596e-10
-7.4493143e-06
1.146143e-09
-5.0445005e-06
1.4682533e-09
-3.1349643e-06
1.3097599e-09
-1.9106929e-06
1.0418996e-09
-1.2315994e-06
7.8841012e-10
-8.3893292e-07
5.8275531e-10
-5.8427308e-07
4.3022677e-10
-4.1000905e-07
3.1809565e-10
-2.8769742e-07
2.3521775e-10
-2.0048798e-07
1.7565545e-10
-1.3863576e-07
1.3085944e-10
-9.5136481e-08
9.6513804e-11
-6.4776953e-08
6.9357242e-11
-4.3740696e-08
4.8334539e-11
-2.9257196e-08
3.2228653e-11
-1.9336886e-08
2.0466727e-11
-1.2577939e-08
1.2149226e-11
-8.0028638e-09
6.6088252e-12
-4.9324644e-09
3.1374172e-12
-2.8953332e-09
1.1745164e-12
-1.5645118e-09
2.5129623e-13
-7.1343834e-10
-1.8544774e-10
1.9692705e-09
-3.5541052e-05
2.8682445e-09
-2.9568615e-05
2.4641598e-09
-2.4192265e-05
1.5082048e-09
-1.9867652e-05
3.1330565e-10
-1.6260417e-05
-6.5549648e-10
-1.3068482e-05
-7.0369333e-10
-1.0144054e-05
1.0706934e-10
-7.4501249e-06
1.1556572e-09
-5.0455493e-06
1.5415521e-09
-3.13535e-06
1.3885701e-09
-1.9105401e-06
1.1084441e-09
-1.231319e-06
8.3688331e-10
-8.3866161e-07
6.1053638e-10
-5.840465e-07
4.3920421e-10
-4.0983795e-07
3.1146209e-10
-2.8756946e-07
2.1651432e-10
-2.0039322e-07
1.4776607e-10
-1.3856681e-07
9.8452983e-11
-9.5087296e-08
6.4307621e-11
-6.4742654e-08
4.0899384e-11
-4.3717352e-08
2.5480035e-11
-2.9241662e-08
1.5334961e-11
-1.9326763e-08
8.9448619e-12
-1.2571479e-08
4.922264e-12
-7.9988372e-09
2.5284121e-12
-4.930032e-09
1.1373226e-12
-2.8939316e-09
4.0954094e-13
-1.5637666e-09
8.6379422e-14
-7.1310288e-10
-1.8536136e-10
1.7452944e-09
-3.5542797e-05
2.4682985e-09
-2.9569338e-05
1.9826281e-09
-2.4191779e-05
1.0111568e-09
-1.9866681e-05
-1.4883311e-10
-1.6259257e-05
-1.0280839e-09
-1.3067602e-05
-9.6300254e-10
-1.0144119e-05
-5.5261655e-11
-7.4510325e-06
1.0603396e-09
-5.0466651e-06
1.4959037e-09
-3.1357854e-06
1.3712509e-09
-1.9104157e-06
1.1047875e-09
-1.2310523e-06
8.3973488e-10
-8.3839678e-07
6.1624162e-10
-5.8382279e-07
4.4611439e-10
-4.0966803e-07
3.1871282e-10
-2.8744186e-07
2.2381885e-10
-2.0029849e-07
1.5488024e-10
-1.3849769e-07
1.0521217e-10
-9.5037737e-08
7.0405488e-11
-6.4707706e-08
4.6086146e-11
-4.3693091e-08
2.9574142e-11
-2.9225061e-08
1.836289e-11
-1.9315575e-08
1.1013082e-11
-1.2564078e-08
6.2335567e-12
-7.9940587e-09
3.2685894e-12
-4.9270489e-09
1.5077997e-12
-2.8921611e-09
5.5251049e-13
-1.562801e-09
1.1611152e-13
-7.1265921e-10
-1.8524525e-10
1.5692191e-09
-3.5544366e-05
2.172434e-09
-2.9569942e-05
1.6366679e-09
-2.4191244e-05
6.571171e-10
-1.9865702e-05
-4.7992644e-10
-1.625812e-05
-1.3133294e-09
-1.3066769e-05
-1.1862149e-09
-1.0144247e-05
-2.1588953e-10
-7.4520027e-06
9.341705e-10
-5.0478153e-06
1.4085715e-09
-3.1362596e-06
1.3164106e-09
-1.9103237e-06
1.0686747e-09
-1.2308044e-06
8.1467202e-10
-8.3814298e-07
5.9829152e-10
-5.8360623e-07
4.3287644e-10
-4.0950281e-07
3.0867298e-10
-2.8731748e-07
2.1609845e-10
-2.0020607e-07
1.4888227e-10
-1.3843031e-07
1.0058408e-10
-9.4989538e-08
6.6878786e-11
-6.4673866e-08
4.3481901e-11
-4.3669746e-08
2.7724373e-11
-2.9209209e-08
1.7106897e-11
-1.9304983e-08
1.0208326e-11
-1.2557129e-08
5.7502557e-12
-7.9896065e-09
3.0158223e-12
-4.9242885e-09
1.3845279e-12
-2.8905324e-09
5.0633626e-13
-1.5619169e-09
1.0569772e-13
-7.1225438e-10
-1.8513955e-10
1.4336775e-09
-3.55458e-05
1.9545401e-09
-2.9570462e-05
1.3859058e-09
-2.4190675e-05
3.9927238e-10
-1.9864715e-05
-7.2529102e-10
-1.6256996e-05
-1.5354602e-09
-1.3065959e-05
-1.3727386e-09
-1.0144409e-05
-3.5887705e-10
-7.4530165e-06
8.1240019e-10
-5.0489867e-06
1.3171405e-09
-3.1367642e-06
1.2564003e-09
-1.9102632e-06
1.0278439e-09
-1.2305757e-06
7.8590159e-10
-8.3790122e-07
5.7790741e-10
-5.8339808e-07
4.1843556e-10
-4.093435e-07
2.9851522e-10
-2.8719741e-07
2.0910883e-10
-2.0011681e-07
1.4412978e-10
-1.3836521e-07
9.745786e-11
-9.4942966e-08
6.4831869e-11
-6.4641151e-08
4.2190677e-11
-4.3647158e-08
2.6891715e-11
-2.9193854e-08
1.6602199e-11
-1.9294709e-08
9.8918341e-12
-1.2550382e-08
5.571253e-12
-7.985279e-09
2.9069537e-12
-4.9216032e-09
1.3344522e-12
-2.8889469e-09
4.8740555e-13
-1.5610558e-09
1.0294425e-13
-7.1186003e-10
-1.8503661e-10
1.3309047e-09
-3.5547131e-05
1.7937136e-09
-2.9570925e-05
1.2028735e-09
-2.4190084e-05
2.1004288e-10
-1.9863722e-05
-9.0956733e-10
-1.6255876e-05
-1.708499e-09
-1.306516e-05
-1.5249278e-09
-1.0144593e-05
-4.8060701e-10
-7.4540607e-06
7.0577384e-10
-5.0501733e-06
1.2341455e-09
-3.1372925e-06
1.2006686e-09
-1.9102299e-06
9.8944519e-10
-1.2303643e-06
7.5853563e-10
-8.3767049e-07
5.5836218e-10
-5.8319776e-07
4.0449546e-10
-4.091898e-07
2.8865418e-10
-2.8708144e-07
2.0226358e-10
-2.0003056e-07
1.3946661e-10
-1.383023e-07
9.4347496e-11
-9.4897943e-08
6.2793893e-11
-6.4609509e-08
4.0883747e-11
-4.3625297e-08
2.6081345e-11
-2.9178984e-08
1.6107376e-11
-1.9284753e-08
9.6077927e-12
-1.2543839e-08
5.4116168e-12
-7.9810811e-09
2.8298931e-12
-4.9189976e-09
1.2985592e-12
-2.8874082e-09
4.7446573e-13
-1.5602202e-09
9.9916631e-14
-7.1147731e-10
-1.8493669e-10
1.2541419e-09
-3.5548385e-05
1.6748063e-09
-2.9571346e-05
1.0689328e-09
-2.4189478e-05
7.1532866e-11
-1.9862725e-05
-1.0478166e-09
-1.6254757e-05
-1.8420977e-09
-1.3064365e-05
-1.6466687e-09
-1.0144789e-05
-5.8137041e-10
-7.4551259e-06
6.1634381e-10
-5.0513711e-06
1.1636786e-09
-3.1378397e-06
1.1521782e-09
-1.9102185e-06
9.5592783e-10
-1.2301679e-06
7.3457785e-10
-8.374493e-07
5.4126024e-10
-5.8300431e-07
3.9235702e-10
-4.0904105e-07
2.8015064e-10
-2.869691e-07
1.9645143e-10
-1.9994698e-07
1.3558673e-10
-1.3824132e-07
9.1841705e-11
-9.4854282e-08
6.1216732e-11
-6.4578794e-08
3.9925535e-11
-4.360405e-08
2.5508655e-11
-2.9164509e-08
1.5784434e-11
-1.9275046e-08
9.4289051e-12
-1.253745e-08
5.3225979e-12
-7.976976e-09
2.7842265e-12
-4.9164464e-09
1.2817539e-12
-2.8859004e-09
4.6877343e-13
-1.5594008e-09
9.7957394e-14
-7.11102e-10
-1.8483873e-10
1.1975483e-09
-3.5549582e-05
1.5880339e-09
-2.9571736e-05
9.714463e-10
-2.4188862e-05
-2.9164931e-11
-1.9861724e-05
-1.1505004e-09
-1.6253636e-05
-1.943913e-09
-1.3063572e-05
-1.7426249e-09
-1.014499e-05
-6.6338288e-10
-7.4562051e-06
5.4259816e-10
-5.0525772e-06
1.1051662e-09
-3.1384021e-06
1.1108704e-09
-1.9102244e-06
9.2717197e-10
-1.2299841e-06
7.1386521e-10
-8.3723614e-07
5.2640739e-10
-5.8281673e-07
3.8176842e-10
-4.0889655e-07
2.7269102e-10
-2.8685991e-07
1.9131723e-10
-1.9986573e-07
1.3213597e-10
-1.3818203e-07
8.9586913e-11
-9.481181e-08
5.9777921e-11
-6.4548895e-08
3.9033416e-11
-4.3583346e-08
2.4973046e-11
-2.9150386e-08
1.5470648e-11
-1.9265562e-08
9.2529893e-12
-1.2531198e-08
5.2268691e-12
-7.9729533e-09
2.7415062e-12
-4.9139435e-09
1.2610495e-12
-2.8844196e-09
4.6138406e-13
-1.5585956e-09
9.6314136e-14
-7.1073304e-10
-1.8474242e-10
1.1564409e-09
-3.5550738e-05
1.5258691e-09
-2.9572106e-05
9.0177596e-10
-2.4188238e-05
-1.0103891e-10
-1.9860721e-05
-1.2252477e-09
-1.6252512e-05
-2.0201587e-09
-1.3062777e-05
-1.8175661e-09
-1.0145193e-05
-7.2964049e-10
-7.4572929e-06
4.8213618e-10
-5.0537891e-06
1.0566024e-09
-3.1389765e-06
1.0757507e-09
-1.9102437e-06
9.0241369e-10
-1.2298107e-06
6.9585728e-10
-8.3702972e-07
5.1337444e-10
-5.8263413e-07
3.7240809e-10
-4.0875572e-07
2.6603365e-10
-2.8675343e-07
1.8668962e-10
-1.9978649e-07
1.2896341e-10
-1.3812422e-07
8.7478735e-11
-9.4770404e-08
5.83909e-11
-6.4519743e-08
3.8151918e-11
-4.3563151e-08
2.4410248e-11
-2.9136603e-08
1.5131414e-11
-1.9256299e-08
9.0470107e-12
-1.2525087e-08
5.1131038e-12
-7.9690177e-09
2.6767042e-12
-4.911493e-09
1.2321566e-12
-2.882969e-09
4.5062192e-13
-1.5578066e-09
9.4352626e-14
-7.1037146e-10
-1.8464806e-10
1.127115e-09
-3.5551865e-05
1.4823212e-09
-2.9572461e-05
8.5335888e-10
-2.4187609e-05
-1.5078823e-10
-1.9859717e-05
-1.2780238e-09
-1.6251384e-05
-2.0760937e-09
-1.3061979e-05
-1.875589e-09
-1.0145393e-05
-7.8328691e-10
-7.4583852e-06
4.3246088e-10
-5.0550049e-06
1.015968e-09
-3.1395599e-06
1.0457584e-09
-1.9102736e-06
8.8097777e-10
-1.2296458e-06
6.8009298e-10
-8.3682896e-07
5.0186683e-10
-5.8245581e-07
3.64042e-10
-4.0861801e-07
2.5998854e-10
-2.8664928e-07
1.8239439e-10
-1.99709e-07
1.2595714e-10
-1.380677e-07
8.5418429e-11
-9.4729938e-08
5.7003124e-11
-6.4491262e-08
3.7241018e-11
-4.3543427e-08
2.3830547e-11
-2.9123144e-08
1.4770908e-11
-1.9247255e-08
8.8334741e-12
-1.251912e-08
4.9904224e-12
-7.9651748e-09
2.6133013e-12
-4.9091e-09
1.201798e-12
-2.8815524e-09
4.3942935e-13
-1.5570361e-09
9.2127805e-14
-7.1001838e-10
-1.8455594e-10
1.1068677e-09
-3.5552972e-05
1.4528552e-09
-2.9572807e-05
8.2128259e-10
-2.4186977e-05
-1.8351305e-10
-1.9858713e-05
-1.3137396e-09
-1.6250254e-05
-2.1162014e-09
-1.3061176e-05
-1.9202064e-09
-1.0145589e-05
-8.2695133e-10
-7.4594784e-06
3.915134e-10
-5.0562235e-06
9.817101e-10
-3.14015e-06
1.0199589e-09
-1.9103119e-06
8.6230979e-10
-1.2294881e-06
6.662262e-10
-8.3663299e-07
4.9168953e-10
-5.8228118e-07
3.5659134e-10
-4.0848302e-07
2.5456386e-10
-2.8654717e-07
1.7850885e-10
-1.9963303e-07
1.2320462e-10
-1.3801232e-07
8.3516015e-11
-9.4690309e-08
5.5706785e-11
-6.446339e-08
3.6386523e-11
-4.352414e-08
2.3275015e-11
-2.9109992e-08
1.4429703e-11
-1.9238423e-08
8.6298168e-12
-1.2513298e-08
4.8799672e-12
-7.9614274e-09
2.5562945e-12
-4.9067678e-09
1.1782061e-12
-2.8801726e-09
4.310416e-13
-1.5562859e-09
8.9593037e-14
-7.0967481e-10
-1.8446634e-10
1.093454e-09
-3.5554066e-05
1.4341317e-09
-2.9573147e-05
8.0169483e-10
-2.4186345e-05
-2.0311015e-10
-1.9857708e-05
-1.3362905e-09
-1.6249121e-05
-2.1438597e-09
-1.3060369e-05
-1.9543922e-09
-1.0145779e-05
-8.6243851e-10
-7.4605703e-06
3.5742902e-10
-5.0574435e-06
9.525176e-10
-3.1407451e-06
9.9764275e-10
-1.9103572e-06
8.4602454e-10
-1.2293364e-06
6.5407596e-10
-8.3644115e-07
4.8274092e-10
-5.8210977e-07
3.5003353e-10
-4.0835041e-07
2.4977977e-10
-2.8644683e-07
1.7506914e-10
-1.995584e-07
1.2075807e-10
-1.3795793e-07
8.1807654e-11
-9.465141e-08
5.4529123e-11
-6.4436048e-08
3.559498e-11
-4.3505231e-08
2.2754127e-11
-2.9097108e-08
1.4097861e-11
-1.9229778e-08
8.4252142e-12
-1.2507603e-08
4.7604769e-12
-7.9577644e-09
2.4934192e-12
-4.9044897e-09
1.1474313e-12
-2.8788255e-09
4.1958469e-13
-1.5555539e-09
8.7382195e-14
-7.0933966e-10
-1.8437896e-10
1.0852721e-09
-3.5555151e-05
1.4234755e-09
-2.9573485e-05
7.9162958e-10
-2.4185713e-05
-2.1265017e-10
-1.9856704e-05
-1.3486133e-09
-1.6247985e-05
-2.1616138e-09
-1.3059556e-05
-1.9801128e-09
-1.014596e-05
-8.9156401e-10
-7.4616588e-06
3.2844126e-10
-5.0586635e-06
9.272924e-10
-3.1413438e-06
9.7818156e-10
-1.9104081e-06
8.3176719e-10
-1.2291899e-06
6.4344774e-10
-8.3625292e-07
4.749537e-10
-5.819412e-07
3.4438296e-10
-4.0821993e-07
2.4570422e-10
-2.8634809e-07
1.7218487e-10
-1.9948496e-07
1.1873204e-10
-1.3790442e-07
8.0414507e-11
-9.4613153e-08
5.3577907e-11
-6.4409166e-08
3.4958775e-11
-4.3486648e-08
2.233283e-11
-2.9084451e-08
1.382943e-11
-1.9221289e-08
8.2594446e-12
-1.2502013e-08
4.6652684e-12
-7.9541708e-09
2.4415518e-12
-4.9022557e-09
1.1237871e-12
-2.877505e-09
4.1081081e-13
-1.5548365e-09
8.5565933e-14
-7.0901134e-10
-1.8429339e-10
1.0810282e-09
-3.5556232e-05
1.4188749e-09
-2.9573823e-05
7.8870873e-10
-2.4185083e-05
-2.1466117e-10
-1.98557e-05
-1.3530894e-09
-1.6246847e-05
-2.1717457e-09
-1.3058737e-05
-1.9990824e-09
-1.0146133e-05
-9.1577461e-10
-7.462742e-06
3.0350402e-10
-5.0598829e-06
9.0531609e-10
-3.1419456e-06
9.6104043e-10
-1.9104639e-06
8.191723e-10
-1.2290479e-06
6.3405232e-10
-8.3606789e-07
4.6808734e-10
-5.8177518e-07
3.3941075e-10
-4.0809134e-07
2.4212706e-10
-2.8625074e-07
1.6965356e-10
-1.9941256e-07
1.1696225e-10
-1.3785167e-07
7.9200466e-11
-9.4575445e-08
5.2755117e-11
-6.4382674e-08
3.4414977e-11
-4.3468337e-08
2.1980694e-11
-2.9071981e-08
1.3606973e-11
-1.9212927e-08
8.1232929e-12
-1.2496508e-08
4.5849354e-12
-7.9506327e-09
2.3971133e-12
-4.9000567e-09
1.1020044e-12
-2.8762055e-09
4.0265e-13
-1.5541307e-09
8.4192951e-14
-7.086883e-10
-1.842092e-10
1.0796886e-09
-3.5557311e-05
1.4187239e-09
-2.9574162e-05
7.9108474e-10
-2.4184455e-05
-2.1114364e-10
-1.9854698e-05
-1.3517105e-09
-1.6245706e-05
-2.1761681e-09
-1.3057913e-05
-2.0129505e-09
-1.0146296e-05
-9.3608967e-10
-7.4638189e-06
2.8188798e-10
-5.0611009e-06
8.8604297e-10
-3.1425497e-06
9.4581839e-10
-1.9105238e-06
8.0791968e-10
-1.22891e-06
6.2565082e-10
-8.3588569e-07
4.6196246e-10
-5.8161143e-07
3.3499319e-10
-4.0796444e-07
2.3896491e-10
-2.8615466e-07
1.6743343e-10
-1.993411e-07
1.15423e-10
-1.3779961e-07
7.8163819e-11
-9.453823e-08
5.2064704e-11
-6.4356532e-08
3.3973475e-11
-4.3450271e-08
2.1700607e-11
-2.905968e-08
1.3441869e-11
-1.920468e-08
8.0285647e-12
-1.2491079e-08
4.537161e-12
-7.9471436e-09
2.3750745e-12
-4.8978883e-09
1.0943013e-12
-2.8749242e-09
4.0017259e-13
-1.5534349e-09
8.2969521e-14
-7.0836989e-10
-1.8412623e-10
1.0803571e-09
-3.5558392e-05
1.421724e-09
-2.9574504e-05
7.9726815e-10
-2.4183831e-05
-2.0362056e-10
-1.9853697e-05
-1.3461177e-09
-1.6244564e-05
-2.1763593e-09
-1.3057082e-05
-2.0230111e-09
-1.014645e-05
-9.5346685e-10
-7.4648884e-06
2.629963e-10
-5.0623174e-06
8.6907361e-10
-3.1431558e-06
9.3226065e-10
-1.9105871e-06
7.9784858e-10
-1.2287755e-06
6.1812041e-10
-8.3570604e-07
4.5647413e-10
-5.8144974e-07
3.3103432e-10
-4.0783907e-07
2.3612537e-10
-2.860597e-07
1.6542798e-10
-1.9927046e-07
1.1402107e-10
-1.3774815e-07
7.7203673e-11
-9.4501452e-08
5.141452e-11
-6.4330701e-08
3.3545533e-11
-4.3432423e-08
2.1423475e-11
-2.9047529e-08
1.3268465e-11
-1.9196534e-08
7.922108e-12
-1.2485717e-08
4.4752254e-12
-7.9436983e-09
2.3416261e-12
-4.8957474e-09
1.0777779e-12
-2.8736591e-09
3.9401895e-13
-1.5527478e-09
8.1928316e-14
-7.0805551e-10
-1.840443e-10
1.0824124e-09
-3.5559474e-05
1.4268765e-09
-2.9574848e-05
8.0613567e-10
-2.418321e-05
-1.9327429e-10
-1.9852698e-05
-1.3374561e-09
-1.624342e-05
-2.1733063e-09
-1.3056246e-05
-2.0301116e-09
-1.0146593e-05
-9.6854095e-10
-7.4659499e-06
2.4610184e-10
-5.0635321e-06
8.5380915e-10
-3.1437634e-06
9.1999045e-10
-1.9106533e-06
7.8868499e-10
-1.2286442e-06
6.1127483e-10
-8.3552869e-07
4.5149476e-10
-5.8128991e-07
3.2745763e-10
-4.077151e-07
2.3356934e-10
-2.8596576e-07
1.6363318e-10
-1.9920058e-07
1.1276954e-10
-1.3769725e-07
7.6349442e-11
-9.4465076e-08
5.0835867e-11
-6.4305157e-08
3.3162671e-11
-4.3414777e-08
2.117409e-11
-2.903552e-08
1.3113098e-11
-1.9188485e-08
7.8295457e-12
-1.2480421e-08
4.4244996e-12
-7.9402958e-09
2.3164402e-12
-4.8936335e-09
1.0672921e-12
-2.8724103e-09
3.9030643e-13
-1.5520698e-09
8.0834678e-14
-7.0774525e-10
-1.8396347e-10
1.0853028e-09
-3.5560559e-05
1.4333801e-09
-2.9575196e-05
8.1672801e-10
-2.4182594e-05
-1.8105873e-10
-1.98517e-05
-1.3266132e-09
-1.6242274e-05
-2.1678007e-09
-1.3055405e-05
-2.0350389e-09
-1.0146726e-05
-9.8167634e-10
-7.4670033e-06
2.3057816e-10
-5.0647444e-06
8.3973257e-10
-3.1443725e-06
9.0864904e-10
-1.9107223e-06
7.8018916e-10
-1.2285157e-06
6.0491848e-10
-8.3535348e-07
4.4686467e-10
-5.8113182e-07
3.2411933e-10
-4.0759241e-07
2.3117297e-10
-2.8587278e-07
1.619351e-10
-1.991314e-07
1.1157717e-10
-1.3764685e-07
7.5526543e-11
-9.4429067e-08
5.0273925e-11
-6.4279874e-08
3.2788246e-11
-4.3397315e-08
2.0928297e-11
-2.9023638e-08
1.295589e-11
-1.9180524e-08
7.7308968e-12
-1.2475184e-08
4.36509e-12
-7.9369319e-09
2.2819836e-12
-4.891544e-09
1.0499861e-12
-2.8711762e-09
3.8374351e-13
-1.5513997e-09
7.9871175e-14
-7.0743871e-10
-1.838836e-10
1.0886583e-09
-3.5561648e-05
1.4405399e-09
-2.9575548e-05
8.282812e-10
-2.4181981e-05
-1.6772614e-10
-1.9850704e-05
-1.3143388e-09
-1.6241127e-05
-2.1607176e-09
-1.3054559e-05
-2.0385703e-09
-1.0146848e-05
-9.9331237e-10
-7.4680485e-06
2.1624067e-10
-5.065954e-06
8.266673e-10
-3.1449829e-06
8.9812564e-10
-1.9107938e-06
7.722916e-10
-1.2283898e-06
5.9899143e-10
-8.3518023e-07
4.4255797e-10
-5.8097535e-07
3.2102556e-10
-4.0747094e-07
2.2896184e-10
-2.8578068e-07
1.6037993e-10
-1.9906286e-07
1.1049441e-10
-1.3759693e-07
7.479349e-11
-9.43934e-08
4.9782596e-11
-6.4254835e-08
3.2472392e-11
-4.3380025e-08
2.0727247e-11
-2.9011875e-08
1.2837311e-11
-1.9172643e-08
7.6635465e-12
-1.247e-08
4.3316292e-12
-7.9336033e-09
2.2678401e-12
-4.8894767e-09
1.0454207e-12
-2.8699552e-09
3.8237359e-13
-1.550737e-09
7.8986246e-14
-7.0713552e-10
-1.8380461e-10
1.0921256e-09
-3.556274e-05
1.4479104e-09
-2.9575904e-05
8.4023204e-10
-2.4181374e-05
-1.5385197e-10
-1.984971e-05
-1.3012013e-09
-1.623998e-05
-2.1526417e-09
-1.3053707e-05
-2.0409027e-09
-1.014696e-05
-1.004115e-09
-7.4690853e-06
2.0279236e-10
-5.067161e-06
8.1444739e-10
-3.1455946e-06
8.8826764e-10
-1.9108676e-06
7.6487214e-10
-1.2282664e-06
5.9343244e-10
-8.3500885e-07
4.3852532e-10
-5.8082041e-07
3.1812966e-10
-4.0735059e-07
2.2688734e-10
-2.856894e-07
1.5890816e-10
-1.9899493e-07
1.0945692e-10
-1.3754745e-07
7.4074094e-11
-9.4358048e-08
4.9289037e-11
-6.4230022e-08
3.2142424e-11
-4.3362894e-08
2.0509466e-11
-2.9000224e-08
1.2698403e-11
-1.916484e-08
7.575862e-12
-1.2464869e-08
4.2793136e-12
-7.9303084e-09
2.2374002e-12
-4.8874307e-09
1.0301675e-12
-2.868747e-09
3.7659389e-13
-1.5500811e-09
7.8169926e-14
-7.068355e-10
-1.8372644e-10
1.0955108e-09
-3.5563835e-05
1.4551404e-09
-2.9576263e-05
8.5218181e-10
-2.4180771e-05
-1.3986921e-10
-1.9848718e-05
-1.2877504e-09
-1.6238832e-05
-2.1439408e-09
-1.3052851e-05
-2.0422539e-09
-1.0147061e-05
-1.0144898e-09
-7.470113e-06
1.8993528e-10
-5.0683654e-06
8.0294804e-10
-3.1462076e-06
8.790586e-10
-1.9109438e-06
7.5796426e-10
-1.2281453e-06
5.8829985e-10
-8.3483923e-07
4.3483616e-10
-5.8066691e-07
3.1551525e-10
-4.0723132e-07
2.2503859e-10
-2.855989e-07
1.5761729e-10
-1.9892755e-07
1.0856172e-10
-1.3749837e-07
7.3461408e-11
-9.4322986e-08
4.8875241e-11
-6.4205416e-08
3.1866455e-11
-4.3345911e-08
2.0332345e-11
-2.8988676e-08
1.2588195e-11
-1.9157108e-08
7.5133703e-12
-1.2459786e-08
4.2464088e-12
-7.927046e-09
2.2241211e-12
-4.8854054e-09
1.0254572e-12
-2.8675513e-09
3.751282e-13
-1.5494322e-09
7.7319318e-14
-7.0653869e-10
-1.8364912e-10
1.098612e-09
-3.5564934e-05
1.46197e-09
-2.9576627e-05
8.6378678e-10
-2.4180173e-05
-1.2609987e-10
-1.9847728e-05
-1.2742751e-09
-1.6237684e-05
-2.134878e-09
-1.3051991e-05
-2.0431267e-09
-1.0147153e-05
-1.0243252e-09
-7.4711318e-06
1.7761174e-10
-5.0695674e-06
7.9201274e-10
-3.1468219e-06
8.7033061e-10
-1.9110222e-06
7.5143817e-10
-1.2280263e-06
5.8344825e-10
-8.3467129e-07
4.3135727e-10
-5.805148e-07
3.1304798e-10
-4.0711306e-07
2.2329196e-10
-2.8550911e-07
1.5638962e-10
-1.988607e-07
1.0770196e-10
-1.3744966e-07
7.2866402e-11
-9.4288186e-08
4.8466238e-11
-6.4180995e-08
3.1590439e-11
-4.3329056e-08
2.0147319e-11
-2.8977218e-08
1.2466513e-11
-1.9149438e-08
7.4336599e-12
-1.2454746e-08
4.1962286e-12
-7.9238114e-09
2.1924433e-12
-4.8833979e-09
1.0089544e-12
-2.8663664e-09
3.6873535e-13
-1.5487892e-09
7.6616273e-14
-7.0624459e-10
-1.8357251e-10
1.1011934e-09
-3.5566035e-05
1.4681299e-09
-2.9576994e-05
8.7481189e-10
-2.4179579e-05
-1.1278645e-10
-1.984674e-05
-1.2608876e-09
-1.6236536e-05
-2.12549e-09
-1.3051126e-05
-2.0436775e-09
-1.0147235e-05
-1.0336306e-09
-7.4721419e-06
1.6551323e-10
-5.0707666e-06
7.8139126e-10
-3.1474378e-06
8.6184151e-10
-1.9111026e-06
7.4509578e-10
-1.2279096e-06
5.7875364e-10
-8.3450499e-07
4.2801397e-10
-5.8036403e-07
3.1069731e-10
-4.0699579e-07
2.2164399e-10
-2.8542004e-07
1.5524765e-10
-1.9879434e-07
1.069162e-10
-1.374013e-07
7.2339022e-11
-9.4253639e-08
4.8114435e-11
-6.4156752e-08
3.1365876e-11
-4.3312326e-08
2.0005245e-11
-2.8965845e-08
1.2384396e-11
-1.9141827e-08
7.3886649e-12
-1.2449744e-08
4.17559e-12
-7.9206022e-09
2.1861591e-12
-4.8814063e-09
1.0079342e-12
-2.865191e-09
3.6868941e-13
-1.5481515e-09
7.5972371e-14
-7.0595293e-10
-1.8349653e-10
1.1031798e-09
-3.5567138e-05
1.4733892e-09
-2.9577364e-05
8.8502208e-10
-2.4178991e-05
-1.0015722e-10
-1.9845755e-05
-1.2478193e-09
-1.6235388e-05
-2.1160263e-09
-1.3050258e-05
-2.0439446e-09
-1.0147307e-05
-1.0426896e-09
-7.4731431e-06
1.5367661e-10
-5.071963e-06
7.7110998e-10
-3.1480552e-06
8.5363366e-10
-1.9111852e-06
7.3898843e-10
-1.2277949e-06
5.7426524e-10
-8.3434031e-07
4.2483107e-10
-5.8021457e-07
3.084654e-10
-4.0687946e-07
2.2007785e-10
-2.8533163e-07
1.5415258e-10
-1.9872845e-07
1.0614938e-10
-1.3735328e-07
7.1808093e-11
-9.4219325e-08
4.7748991e-11
-6.4132674e-08
3.1119485e-11
-4.3295712e-08
1.9840328e-11
-2.8954553e-08
1.2276485e-11
-1.913427e-08
7.3183257e-12
-1.2444779e-08
4.1316836e-12
-7.9174175e-09
2.1583358e-12
-4.8794303e-09
9.9356117e-13
-2.8640248e-09
3.631338e-13
-1.5475188e-09
7.5383075e-14
-7.0566357e-10
-1.8342115e-10
1.1044861e-09
-3.5568243e-05
1.4776287e-09
-2.9577737e-05
8.9431416e-10
-2.4178408e-05
-8.8337011e-11
-1.9844773e-05
-1.2352886e-09
-1.6234241e-05
-2.106754e-09
-1.3049386e-05
-2.0440556e-09
-1.014737e-05
-1.0515128e-09
-7.4741356e-06
1.4223959e-10
-5.0731568e-06
7.6135874e-10
-3.1486743e-06
8.4585487e-10
-1.9112697e-06
7.3325608e-10
-1.2276823e-06
5.7009594e-10
-8.3417718e-07
4.2192295e-10
-5.8006638e-07
3.0647348e-10
-4.0676405e-07
2.1871608e-10
-2.8524385e-07
1.5323175e-10
-1.9866301e-07
1.0552748e-10
-1.3730556e-07
7.1394597e-11
-9.4185223e-08
4.7475735e-11
-6.4108745e-08
3.0944174e-11
-4.3279202e-08
1.9731897e-11
-2.8943335e-08
1.2214858e-11
-1.9126765e-08
7.2877992e-12
-1.243985e-08
4.120129e-12
-7.914256e-09
2.1589019e-12
-4.8774691e-09
9.9624416e-13
-2.8628677e-09
3.6459248e-13
-1.5468911e-09
7.4765558e-14
-7.0537654e-10
-1.8334639e-10
1.1050182e-09
-3.5569348e-05
1.4808331e-09
-2.9578113e-05
9.0262598e-10
-2.417783e-05
-7.7318764e-11
-1.9843793e-05
-1.2233777e-09
-1.6233095e-05
-2.0977069e-09
-1.3048512e-05
-2.0442631e-09
-1.0147423e-05
-1.0599605e-09
-7.4751199e-06
1.3109559e-10
-5.0743478e-06
7.5209355e-10
-3.1492953e-06
8.3851882e-10
-1.9113562e-06
7.2786368e-10
-1.2275716e-06
5.6619584e-10
-8.3401555e-07
4.1922843e-10
-5.799194e-07
3.0464573e-10
-4.0664951e-07
2.1747982e-10
-2.8515667e-07
1.5239897e-10
-1.9859796e-07
1.0496305e-10
-1.3725811e-07
7.101288e-11
-9.4151303e-08
4.7216165e-11
-6.4084936e-08
3.0768019e-11
-4.3262773e-08
1.9611316e-11
-2.893217e-08
1.2131752e-11
-1.9119296e-08
7.2298675e-12
-1.2434945e-08
4.0808077e-12
-7.9111106e-09
2.1310743e-12
-4.8755182e-09
9.8100685e-13
-2.8617168e-09
3.5854413e-13
-1.5462668e-09
7.4366409e-14
-7.0509107e-10
-1.8327202e-10
1.1047584e-09
-3.5570453e-05
1.4830059e-09
-2.9578491e-05
9.0994189e-10
-2.4177256e-05
-6.7056592e-11
-1.9842816e-05
-1.2119558e-09
-1.6231951e-05
-2.0887974e-09
-1.3047635e-05
-2.044413e-09
-1.0147468e-05
-1.0682911e-09
-7.476096e-06
1.2016493e-10
-5.0755363e-06
7.4308398e-10
-3.1499182e-06
8.3147996e-10
-1.9114446e-06
7.2273059e-10
-1.2274629e-06
5.6250106e-10
-8.3385536e-07
4.1672447e-10
-5.797736e-07
3.0299426e-10
-4.0653581e-07
2.1640163e-10
-2.8507006e-07
1.5170926e-10
-1.985333e-07
1.0452671e-10
-1.3721091e-07
7.0746338e-11
-9.4117548e-08
4.7053983e-11
-6.4061234e-08
3.0676382e-11
-4.3246412e-08
1.9560087e-11
-2.8921048e-08
1.2109192e-11
-1.9111854e-08
7.2226706e-12
-1.2430056e-08
4.0827432e-12
-7.9079754e-09
2.1382324e-12
-4.8735734e-09
9.8636203e-13
-2.8605693e-09
3.6091034e-13
-1.5456443e-09
7.4144972e-14
-7.0480645e-10
-1.8319787e-10
1.1036578e-09
-3.5571556e-05
1.4842303e-09
-2.9578872e-05
9.1631758e-10
-2.4176689e-05
-5.7515432e-11
-1.9841842e-05
-1.200928e-09
-1.6230807e-05
-2.079916e-09
-1.3046756e-05
-2.0442623e-09
-1.0147503e-05
-1.076577e-09
-7.4770637e-06
1.0911862e-10
-5.076722e-06
7.340632e-10
-3.1505431e-06
8.2450507e-10
-1.9115351e-06
7.1765047e-10
-1.227356e-06
5.5890536e-10
-8.3369664e-07
4.1429026e-10
-5.7962898e-07
3.013822e-10
-4.0642294e-07
2.1533879e-10
-2.84984e-07
1.5101251e-10
-1.9846901e-07
1.0406835e-10
-1.3716395e-07
7.044651e-11
-9.4083949e-08
4.6857207e-11
-6.4037633e-08
3.0547616e-11
-4.3230116e-08
1.9474561e-11
-2.8909968e-08
1.2051264e-11
-1.9104438e-08
7.1822431e-12
-1.2425184e-08
4.0549148e-12
-7.90485e-09
2.1171736e-12
-4.8716344e-09
9.7480576e-13
-2.8594253e-09
3.5629667e-13
-1.5450237e-09
7.3962998e-14
-7.0452257e-10
-1.8312391e-10
1.1018035e-09
-3.5572658e-05
1.4844646e-09
-2.9579254e-05
9.2179906e-10
-2.4176126e-05
-4.868291e-11
-1.9840871e-05
-1.1903563e-09
-1.6229665e-05
-2.0712245e-09
-1.3045875e-05
-2.0440923e-09
-1.0147531e-05
-1.0847165e-09
-7.4780231e-06
9.811346e-11
-5.0779049e-06
7.2515977e-10
-3.1511702e-06
8.1773241e-10
-1.9116277e-06
7.1274437e-10
-1.227251e-06
5.5551023e-10
-8.3353944e-07
4.1203415e-10
-5.7948549e-07
2.9993167e-10
-4.0631087e-07
2.1441977e-10
-2.8489849e-07
1.504475e-10
-1.9840507e-07
1.0372779e-10
-1.3711723e-07
7.025074e-11
-9.4050501e-08
4.6749041e-11
-6.401413e-08
3.0494858e-11
-4.3213883e-08
1.9454615e-11
-2.8898928e-08
1.2052261e-11
-1.9097049e-08
7.19419e-12
-1.2420328e-08
4.0710398e-12
-7.9017354e-09
2.1355701e-12
-4.8697021e-09
9.8679956e-13
-2.858285e-09
3.6141294e-13
-1.5444051e-09
7.3705924e-14
-7.0423967e-10
-1.8305021e-10
1.0992611e-09
-3.5573757e-05
1.4837155e-09
-2.9579639e-05
9.2638998e-10
-2.4175569e-05
-4.0523181e-11
-1.9839904e-05
-1.1802728e-09
-1.6228526e-05
-2.0627917e-09
-1.3044993e-05
-2.0438937e-09
-1.0147549e-05
-1.0928263e-09
-7.4789742e-06
8.7158941e-11
-5.0790849e-06
7.1640864e-10
-3.1517994e-06
8.1111237e-10
-1.9117224e-06
7.0797455e-10
-1.2271478e-06
5.5217201e-10
-8.3338366e-07
4.0981043e-10
-5.7934312e-07
2.9848305e-10
-4.0619958e-07
2.1348288e-10
-2.8481348e-07
1.49845e-10
-1.9834146e-07
1.0333839e-10
-1.3707072e-07
6.9997677e-11
-9.4017187e-08
4.6582307e-11
-6.3990711e-08
3.0381954e-11
-4.3197701e-08
1.9375973e-11
-2.8887921e-08
1.1994114e-11
-1.9089679e-08
7.1499835e-12
-1.2415485e-08
4.0377942e-12
-7.8986281e-09
2.1087511e-12
-4.8677741e-09
9.7132551e-13
-2.8571473e-09
3.5512665e-13
-1.5437878e-09
7.3562577e-14
-7.0395735e-10
-1.8297664e-10
1.0960204e-09
-3.5574853e-05