/*--------------------------------*- C++ -*----------------------------------*\
| =========                 |                                                 |
| \\      /  F ield         | OpenFOAM: The Open Source CFD Toolbox           |
|  \\    /   O peration     | Version:  v2012                                 |
|   \\  /    A nd           | Website:  www.openfoam.com                      |
|    \\/     M anipulation  |                                                 |
\*---------------------------------------------------------------------------*/
FoamFile
{
    version     2.0;
    format      ascii;
    class       volScalarField;
    location    "200";
    object      rho;
}
// * * * * * * * * * * * * * * * * * * * * * * * * * * * * * * * * * * * * * //

dimensions      [1 -3 0 0 0 0 0];


internalField   nonuniform List<scalar> 
24000
(
22.210026
21.922673
21.422713
21.077333
20.644441
19.806899
18.283663
15.887086
12.640244
9.1377577
6.4279391
4.8045931
3.8604809
3.2604956
2.8674804
2.6002615
2.407335
2.2636452
2.1542987
2.0696358
2.0031715
1.9503146
1.907694
1.8728346
1.843937
1.8196673
1.7990189
1.7812386
1.7657487
1.7521018
22.213129
21.925446
21.424445
21.078537
20.645238
19.807557
18.284892
15.88799
12.639592
9.1437938
6.4413038
4.8173048
3.8715668
3.2698809
2.8752332
2.6068637
2.4129986
2.2685321
2.1585381
2.0733364
2.0064393
1.9532483
1.9103779
1.8753348
1.8463024
1.8219313
1.8012044
1.7833613
1.7678195
1.7541285
22.216364
21.928097
21.426031
21.079604
20.646121
19.808812
18.28751
15.892386
12.647286
9.1531501
6.4492121
4.8234411
3.876534
3.2740017
2.8787841
2.6100519
2.4158953
2.2711737
2.1609419
2.0755151
2.0084038
1.9550208
1.9119914
1.876825
1.8477003
1.8232611
1.8024836
1.7846016
1.7690287
1.7553116
22.219613
21.930794
21.427774
21.080897
20.647219
19.810195
18.290497
15.897552
12.653454
9.157669
6.4518368
4.8248771
3.877296
3.2744083
2.8789237
2.6099496
2.4155516
2.2706188
2.1602355
2.074729
2.0075983
1.9542345
1.911242
1.8761159
1.847027
1.8226178
1.8018644
1.7840016
1.7684442
1.7547401
22.222868
21.933522
21.429584
21.082269
20.648385
19.811666
18.293738
15.902953
12.659482
9.1616122
6.453599
4.8255759
3.8775384
3.2744955
2.8789991
2.6100254
2.4156318
2.2707114
2.160338
2.0748313
2.0076946
1.9543222
1.9113208
1.8761869
1.8470919
1.8226782
1.8019216
1.7840565
1.7684976
1.7547925
22.226131
21.936291
21.431458
21.083698
20.649567
19.813202
18.297101
15.90834
12.665491
9.1653933
6.4550371
4.8259442
3.8774919
3.2743266
2.8788565
2.6099098
2.4155291
2.270615
2.1602454
2.0747423
2.00761
1.9542423
1.9112457
1.8761162
1.8470248
1.8226141
1.8018599
1.7839969
1.7684397
1.7547359
22.229401
21.939095
21.433375
21.08516
20.650758
19.814789
18.300521
15.913757
12.671548
9.1691993
6.4564569
4.8262818
3.8774192
3.2741394
2.878707
2.6097972
2.4154391
2.27054
2.1601813
2.0746866
2.0075606
1.9541975
1.9112044
1.8760775
1.8469881
1.822579
1.801826
1.783964
1.7684078
1.7547049
22.232677
21.941927
21.435325
21.086642
20.651961
19.8164
18.303992
15.919243
12.677646
9.1730822
6.4579478
4.826659
3.877368
3.2739654
2.8785651
2.609689
2.4153513
2.2704658
2.1601172
2.0746305
2.0075106
1.9541522
1.9111626
1.8760385
1.8469514
1.8225439
1.8017923
1.7839315
1.7683762
1.7546741
22.235959
21.944783
21.437297
21.088137
20.653177
19.818027
18.307507
15.924809
12.683777
9.1770496
6.4595364
4.8271005
3.8773593
3.2738221
2.8784453
2.6095974
2.4152769
2.270403
2.1600633
2.0745836
2.0074691
1.9541149
1.9111284
1.8760067
1.8469215
1.8225155
1.801765
1.7839051
1.7683507
1.7546493
22.239247
21.947659
21.439287
21.089641
20.654404
19.819669
18.311059
15.930447
12.689944
9.1810917
6.4612221
4.8276071
3.8773941
3.2737107
2.8783481
2.6095225
2.4152152
2.2703504
2.1600179
2.0745441
2.0074343
1.9540836
1.9110999
1.8759803
1.8468967
1.8224919
1.8017425
1.7838835
1.7683297
1.754629
22.24254
21.950549
21.441292
21.091156
20.65564
19.821324
18.314641
15.936143
12.696144
9.1851986
6.4629907
4.8281729
3.8774683
3.2736284
2.8782718
2.6094627
2.4151651
2.270307
2.1599801
2.0745111
2.0074053
1.9540576
1.9110761
1.8759584
1.8468762
1.8224726
1.801724
1.7838657
1.7683125
1.7546123
22.245838
21.953449
21.44331
21.092682
20.656882
19.822988
18.318243
15.941884
12.702372
9.1893606
6.4648252
4.8287889
3.8775763
3.2735708
2.8782131
2.6094157
2.4151245
2.2702711
2.1599484
2.0744831
2.0073805
1.9540354
1.9110559
1.8759397
1.8468587
1.8224561
1.8017083
1.7838506
1.7682979
1.7545982
22.249142
21.95636
21.445341
21.094219
20.65813
19.82466
18.321858
15.947658
12.708623
9.1935682
6.4667114
4.8294465
3.8777122
3.2735343
2.8781697
2.6093798
2.4150924
2.2702417
2.1599219
2.0744594
2.0073594
1.9540164
1.9110386
1.8759237
1.8468438
1.8224419
1.8016948
1.7838377
1.7682855
1.7545861
22.25245
21.95928
21.447382
21.095764
20.659383
19.826335
18.32548
15.953457
12.714895
9.1978124
6.4686386
4.8301384
3.8778716
3.2735157
2.8781394
2.6093537
2.4150676
2.270218
2.1598998
2.0744394
2.0073413
1.9540001
1.9110236
1.8759099
1.8468308
1.8224296
1.8016831
1.7838264
1.7682746
1.7545757
22.255762
21.962208
21.449433
21.097319
20.66064
19.828013
18.329103
15.959271
12.721183
9.2020855
6.4705991
4.830859
3.8780512
3.2735133
2.878121
2.6093364
2.4150495
2.2701996
2.1598821
2.0744229
2.0073263
1.9539865
1.9110113
1.8758984
1.84682
1.8224195
1.8016734
1.7838172
1.7682658
1.7545671
22.25908
21.965144
21.451493
21.098882
20.6619
19.829691
18.332724
15.965095
12.727485
9.2063811
6.4725864
4.831604
3.8782482
3.2735252
2.8781133
2.6093271
2.4150377
2.2701862
2.1598686
2.0744101
2.0073146
1.9539759
1.9110015
1.8758895
1.8468117
1.8224116
1.801666
1.7838101
1.768259
1.7545606
22.262402
21.968088
21.453563
21.100453
20.663165
19.831369
18.336337
15.970923
12.733797
9.2106947
6.4745963
4.8323698
3.8784606
3.2735498
2.8781155
2.6093255
2.4150321
2.2701779
2.1598593
2.0744009
2.0073061
1.9539681
1.9109945
1.8758831
1.8468058
1.8224061
1.8016608
1.7838052
1.7682544
1.7545562
22.265728
21.971038
21.455641
21.102031
20.664433
19.833045
18.339942
15.97675
12.740116
9.2150235
6.4766251
4.8331536
3.8786865
3.2735858
2.8781266
2.6093307
2.4150318
2.2701739
2.1598536
2.0743948
2.0073002
1.9539628
1.9109897
1.8758786
1.8468017
1.8224023
1.8016573
1.783802
1.7682513
1.7545533
22.26906
21.973996
21.457728
21.103616
20.665703
19.834718
18.343535
15.982571
12.74644
9.2193652
6.4786695
4.833953
3.8789243
3.2736321
2.8781456
2.6093421
2.4150364
2.2701738
2.1598512
2.0743915
2.0072968
1.9539596
1.9109868
1.8758761
1.8467994
1.8224003
1.8016555
1.7838003
1.7682498
1.754552
22.272395
21.97696
21.459824
21.105209
20.666977
19.836388
18.347113
15.988384
12.752768
9.2237173
6.480727
4.8347659
3.8791727
3.2736878
2.8781721
2.6093592
2.4150455
2.2701774
2.1598517
2.0743907
2.0072955
1.9539584
1.9109857
1.8758751
1.8467986
1.8223997
1.801655
1.7838
1.7682496
1.7545519
22.275735
21.979931
21.461928
21.106807
20.668254
19.838053
18.350677
15.994185
12.759097
9.2280786
6.4827957
4.8355908
3.8794306
3.273752
2.8782054
2.6093817
2.4150588
2.2701844
2.1598551
2.0743922
2.0072963
1.953959
1.9109863
1.8758757
1.8467993
1.8224004
1.8016558
1.7838009
1.7682506
1.7545531
22.27908
21.982909
21.46404
21.108413
20.669534
19.839715
18.354223
15.999972
12.765427
9.2324473
6.4848738
4.8364259
3.8796973
3.2738241
2.8782449
2.609409
2.415076
2.2701945
2.159861
2.0743958
2.0072989
1.9539611
1.9109882
1.8758776
1.8468011
1.8224022
1.8016577
1.7838028
1.7682526
1.7545551
22.282429
21.985894
21.46616
21.110024
20.670817
19.841373
18.357751
16.005744
12.771753
9.2368226
6.4869605
4.8372707
3.879972
3.2739036
2.8782905
2.6094411
2.415097
2.2702077
2.1598695
2.0744017
2.0073035
1.953965
1.9109918
1.875881
1.8468044
1.8224054
1.8016609
1.783806
1.7682559
1.7545584
22.285782
21.988885
21.468289
21.111642
20.672104
19.843025
18.36126
16.011502
12.778078
9.2412041
6.4890551
4.838124
3.8802541
3.2739902
2.8783419
2.6094777
2.4151217
2.2702239
2.1598804
2.0744096
2.0073098
1.9539705
1.9109968
1.8758857
1.8468089
1.8224098
1.8016651
1.7838103
1.7682601
1.7545627
22.28914
21.991884
21.470427
21.113266
20.673394
19.844673
18.364749
16.01724
12.784399
9.245591
6.4911566
4.8389854
3.8805436
3.2740836
2.8783989
2.6095188
2.41515
2.2702431
2.1598938
2.0744197
2.007318
1.9539776
1.9110033
1.8758918
1.8468147
1.8224154
1.8016707
1.7838157
1.7682655
1.7545682
22.292503
21.994889
21.472574
21.114896
20.674687
19.846316
18.368217
16.022957
12.790715
9.2499832
6.4932651
4.8398545
3.8808398
3.2741836
2.8784613
2.6095642
2.4151816
2.2702649
2.1599095
2.0744316
2.0073277
1.9539861
1.911011
1.8758989
1.8468215
1.822422
1.801677
1.783822
1.7682718
1.7545744
22.295869
21.997902
21.474729
21.116533
20.675984
19.847954
18.371665
16.028655
12.797025
9.25438
6.4953794
4.8407307
3.8811426
3.2742899
2.878529
2.6096137
2.4152166
2.2702896
2.1599274
2.0744455
2.0073393
1.9539962
1.9110202
1.8759075
1.8468296
1.8224298
1.8016847
1.7838295
1.7682792
1.7545818
22.29924
22.000922
21.476893
21.118177
20.677284
19.849587
18.375091
16.03433
12.803329
9.2587815
6.4974996
4.8416137
3.8814518
3.2744025
2.8786019
2.6096674
2.4152549
2.2703169
2.1599476
2.0744613
2.0073524
1.9540077
1.9110306
1.8759173
1.8468389
1.8224386
1.8016932
1.7838379
1.7682875
1.75459
22.302616
22.003949
21.479067
21.119827
20.678589
19.851215
18.378494
16.039983
12.809626
9.2631877
6.499625
4.8425035
3.8817675
3.2745213
2.8786799
2.6097252
2.4152966
2.2703469
2.1599701
2.074479
2.0073672
1.9540208
1.9110425
1.8759283
1.8468493
1.8224487
1.801703
1.7838474
1.7682969
1.7545993
22.305995
22.006984
21.481249
21.121484
20.679898
19.852839
18.381875
16.045612
12.815914
9.2675986
6.5017552
4.8433996
3.8820891
3.274646
2.8787629
2.6097868
2.4153412
2.2703794
2.1599945
2.0744984
2.0073834
1.954035
1.9110554
1.8759403
1.8468606
1.8224595
1.8017134
1.7838577
1.7683069
1.7546093
22.309378
22.010026
21.483442
21.123149
20.681212
19.854459
18.385234
16.05122
12.822194
9.272014
6.50389
4.8443016
3.8824167
3.2747765
2.8788508
2.6098523
2.415389
2.2704143
2.160021
2.0745195
2.0074012
1.9540506
1.9110696
1.8759535
1.8468731
1.8224714
1.8017249
1.7838689
1.768318
1.7546202
22.312766
22.013076
21.485644
21.12482
20.68253
19.856074
18.388571
16.056803
12.828464
9.2764335
6.5060295
4.8452093
3.8827496
3.2749127
2.8789433
2.6099215
2.4154395
2.2704515
2.1600493
2.0745421
2.0074202
1.9540673
1.9110847
1.8759675
1.8468863
1.822484
1.8017372
1.7838808
1.7683297
1.7546318
22.316157
22.016134
21.487855
21.1265
20.683852
19.857684
18.391884
16.062361
12.834725
9.2808574
6.5081733
4.8461226
3.8830886
3.2750544
2.8790406
2.6099943
2.415493
2.270491
2.1600795
2.0745664
2.0074406
1.9540852
1.9111009
1.8759825
1.8469005
1.8224976
1.8017502
1.7838935
1.7683422
1.7546441
22.319552
22.019199
21.490077
21.128187
20.685179
19.859291
18.395175
16.067894
12.840974
9.2852857
6.5103221
4.8470414
3.8834332
3.2752015
2.8791422
2.6100705
2.415549
2.2705325
2.1601113
2.0745918
2.007462
1.9541039
1.9111179
1.8759981
1.8469151
1.8225115
1.8017637
1.7839067
1.7683551
1.7546569
22.322951
22.022272
21.492308
21.129882
20.686511
19.860893
18.398443
16.073401
12.847212
9.2897186
6.5124753
4.8479657
3.8837835
3.2753542
2.8792485
2.6101503
2.4156079
2.2705762
2.1601449
2.0746188
2.0074848
1.9541239
1.9111358
1.8760147
1.8469307
1.8225264
1.801778
1.7839206
1.7683687
1.7546703
22.326354
22.025354
21.494549
21.131585
20.687848
19.862491
18.401689
16.078881
12.853437
9.2941561
6.514633
4.8488955
3.8841393
3.2755123
2.8793592
2.6102336
2.4156695
2.2706221
2.1601802
2.0746472
2.0075086
1.9541447
1.9111545
1.876032
1.8469469
1.8225418
1.8017928
1.783935
1.7683828
1.7546843
22.329761
22.028443
21.496801
21.133296
20.68919
19.864085
18.404911
16.084335
12.85965
9.2985979
6.5167945
4.8498308
3.8845007
3.2756759
2.8794744
2.6103205
2.4157339
2.2706702
2.1602172
2.074677
2.0075336
1.9541666
1.9111743
1.8760502
1.8469639
1.822558
1.8018084
1.7839501
1.7683977
1.7546989
22.333172
22.03154
21.499063
21.135016
20.690537
19.865676
18.408111
16.089764
12.86585
9.3030444
6.5189599
4.8507712
3.8848675
3.2758448
2.879594
2.6104106
2.4158008
2.2707202
2.1602558
2.0747079
2.0075596
1.9541892
1.9111946
1.8760688
1.8469813
1.8225745
1.8018243
1.7839655
1.7684128
1.7547138
22.336586
22.034645
21.501335
21.136744
20.69189
19.867263
18.411287
16.095167
12.872036
9.3074955
6.5211296
4.8517169
3.8852402
3.2760193
2.8797181
2.6105044
2.4158705
2.2707725
2.1602963
2.0747405
2.007587
1.9542131
1.9112161
1.8760885
1.8469998
1.822592
1.8018411
1.7839818
1.7684287
1.7547295
22.340004
22.037759
21.503618
21.138482
20.693248
19.868847
18.414441
16.100541
12.878206
9.3119514
6.5233036
4.8526681
3.8856189
3.2761996
2.8798469
2.6106019
2.4159432
2.270827
2.1603385
2.0747746
2.0076156
1.954238
1.9112384
1.876109
1.8470189
1.8226101
1.8018585
1.7839987
1.7684452
1.7547458
22.343426
22.040881
21.505911
21.140228
20.694612
19.870427
18.417574
16.105889
12.884361
9.3164123
6.525482
4.853625
3.8860035
3.2763853
2.8799805
2.6107031
2.4160188
2.270884
2.1603827
2.0748102
2.0076456
1.9542642
1.9112619
1.8761306
1.847039
1.8226292
1.8018768
1.7840165
1.7684626
1.7547629
22.346851
22.044011
21.508215
21.141983
20.695982
19.872005
18.420685
16.11121
12.890502
9.320878
6.5276655
4.8545873
3.8863938
3.2765768
2.8801185
2.6108078
2.4160971
2.270943
2.1604285
2.0748472
2.0076766
1.9542912
1.9112861
1.8761527
1.8470596
1.8226486
1.8018955
1.7840346
1.7684803
1.7547803
22.350279
22.047149
21.51053
21.143747
20.697358
19.87358
18.423773
16.116502
12.896627
9.3253491
6.5298542
4.8555554
3.8867903
3.2767742
2.8802612
2.6109162
2.4161783
2.2710044
2.1604763
2.0748858
2.0077091
1.9543195
1.9113114
1.8761759
1.8470812
1.8226692
1.8019151
1.7840536
1.7684989
1.7547986
22.353712
22.050295
21.512856
21.145521
20.698741
19.875152
18.426839
16.121766
12.902735
9.3298251
6.5320473
4.8565292
3.8871932
3.2769775
2.8804088
2.6110284
2.4162626
2.2710682
2.160526
2.074926
2.0077429
1.9543489
1.9113377
1.8762
1.8471037
1.8226904
1.8019354
1.7840733
1.7685181
1.7548175
22.357148
22.05345
21.515193
21.147304
20.70013
19.876722
18.429883
16.127004
12.908828
9.334305
6.5342452
4.857509
3.8876028
3.2771868
2.8805614
2.6111446
2.4163499
2.2711345
2.1605778
2.0749679
2.0077782
1.9543797
1.9113653
1.8762252
1.8471272
1.8227126
1.8019568
1.7840939
1.7685383
1.7548374
22.360588
22.056613
21.51754
21.149096
20.701526
19.87829
18.432907
16.132215
12.914905
9.338788
6.5364476
4.8584948
3.8880188
3.2774021
2.8807186
2.6112644
2.4164401
2.271203
2.1606313
2.0750112
2.0078147
1.9544114
1.9113936
1.8762511
1.8471512
1.8227353
1.8019785
1.784115
1.7685588
1.7548576
22.364031
22.059784
21.519898
21.150898
20.702928
19.879855
18.435911
16.137399
12.92097
9.3432737
6.538655
4.8594868
3.8884414
3.2776235
2.8808808
2.6113882
2.4165335
2.271274
2.1606869
2.0750564
2.0078527
1.9544445
1.9114233
1.8762782
1.8471765
1.8227592
1.8020013
1.784137
1.7685804
1.7548788
22.367477
22.062963
21.522267
21.152711
20.704338
19.881419
18.438893
16.142554
12.92702
9.3477615
6.5408675
4.8604853
3.8888708
3.277851
2.881048
2.6115158
2.4166298
2.2713475
2.1607445
2.0751031
2.007892
1.9544787
1.9114539
1.8763062
1.8472025
1.8227838
1.8020249
1.7841598
1.7686026
1.7549006
22.370926
22.06615
21.524647
21.154534
20.705755
19.882982
18.441855
16.147682
12.933056
9.3522516
6.5430857
4.8614901
3.8893071
3.2780848
2.8812203
2.6116475
2.4167294
2.2714235
2.1608042
2.0751517
2.007933
1.9545144
1.9114858
1.8763354
1.8472297
1.8228095
1.8020494
1.7841835
1.7686257
1.7549234
22.374378
22.069345
21.527037
21.156368
20.707179
19.884543
18.444796
16.152782
12.939076
9.3567434
6.5453098
4.8625015
3.8897503
3.2783246
2.8813974
2.6117828
2.4168318
2.2715018
2.1608656
2.0752016
2.007975
1.954551
1.9115185
1.8763651
1.8472574
1.8228356
1.8020744
1.7842077
1.7686493
1.7549466
22.377834
22.072548
21.529438
21.158214
20.708611
19.886104
18.447719
16.157854
12.94508
9.3612375
6.5475397
4.8635194
3.8902005
3.2785709
2.8815797
2.6119223
2.4169375
2.2715827
2.1609292
2.0752534
2.0080187
1.954589
1.9115525
1.8763962
1.8472863
1.8228629
1.8021006
1.784233
1.768674
1.7549708
22.381292
22.075759
21.531849
21.16007
20.710051
19.887664
18.450622
16.162896
12.951071
9.3657344
6.5497752
4.8645442
3.8906574
3.2788236
2.8817671
2.6120657
2.4170464
2.271666
2.1609949
2.0753068
2.0080638
1.9546283
1.9115876
1.8764283
1.847316
1.822891
1.8021274
1.7842589
1.7686993
1.7549957
22.384753
22.078977
21.534271
21.161938
20.711499
19.889223
18.453506
16.167912
12.957046
9.3702332
6.5520165
4.8655758
3.891122
3.2790828
2.8819598
2.6122134
2.4171585
2.2717521
2.1610628
2.0753622
2.0081105
1.954669
1.911624
1.8764616
1.847347
1.8229202
1.8021554
1.7842859
1.7687256
1.7550215
22.388217
22.082203
21.536703
21.163816
20.712955
19.890783
18.45637
16.172901
12.963005
9.3747339
6.5542633
4.8666142
3.8915939
3.2793485
2.8821575
2.6123649
2.4172737
2.2718405
2.1611324
2.075419
2.0081585
1.9547107
1.9116613
1.8764956
1.8473786
1.82295
1.8021838
1.7843134
1.7687524
1.7550479
22.391683
22.085436
21.539145
21.165704
20.714419
19.892343
18.459216
16.177861
12.968948
9.3792363
6.5565163
4.8676599
3.8920735
3.2796209
2.8823606
2.6125207
2.4173923
2.2719316
2.1612044
2.0754778
2.0082081
1.954754
1.9117
1.8765309
1.8474114
1.822981
1.8022134
1.784342
1.7687803
1.7550753
22.395152
22.088676
21.541598
21.167603
20.715892
19.893903
18.462043
16.182794
12.974873
9.3837414
6.5587762
4.8687129
3.892561
3.2799001
2.8825691
2.6126807
2.417514
2.2720252
2.1612785
2.0755383
2.0082592
1.9547985
1.9117398
1.8765672
1.8474452
1.8230128
1.8022439
1.7843714
1.768809
1.7551034
22.398624
22.091924
21.544061
21.169513
20.717373
19.895464
18.464853
16.187699
12.980782
9.388249
6.5610429
4.8697737
3.8930566
3.2801862
2.8827832
2.6128449
2.4176392
2.2721217
2.1613548
2.0756008
2.0083121
1.9548446
1.911781
1.8766049
1.8474802
1.8230459
1.8022754
1.7844019
1.7688387
1.7551326
22.402099
22.095178
21.546534
21.171433
20.718863
19.897026
18.467645
16.192575
12.986676
9.3927584
6.5633165
4.870842
3.8935601
3.2804791
2.8830025
2.6130132
2.4177675
2.2722205
2.161433
2.0756647
2.0083661
1.9548916
1.911823
1.8766432
1.8475158
1.8230794
1.8023075
1.7844329
1.7688689
1.7551622
22.405576
22.098439
21.549017
21.173364
20.720362
19.898589
18.47042
16.197424
12.992552
9.3972696
6.5655972
4.8719184
3.8940718
3.280779
2.8832273
2.6131858
2.4178992
2.2723221
2.1615136
2.0757307
2.0084219
1.9549403
1.9118666
1.876683
1.8475527
1.8231143
1.8023408
1.784465
1.7689002
1.755193
22.409055
22.101707
21.551509
21.175305
20.721869
19.900155
18.473177
16.202244
12.998411
9.401783
6.5678847
4.873003
3.894592
3.2810861
2.8834577
2.6133626
2.4180343
2.2724264
2.1615963
2.0757984
2.0084793
1.9549903
1.9119112
1.8767238
1.8475906
1.82315
1.8023749
1.784498
1.7689323
1.7552245
22.412537
22.104981
21.554012
21.177258
20.723386
19.901723
18.475917
16.207036
13.004253
9.4062988
6.5701797
4.8740962
3.8951208
3.2814006
2.8836938
2.613544
2.4181729
2.2725336
2.1616815
2.0758683
2.0085384
1.9550419
1.9119574
1.876766
1.8476299
1.823187
1.8024103
1.7845321
1.7689656
1.7552571
22.416022
22.108262
21.556524
21.179221
20.724912
19.903293
18.47864
16.2118
13.010077
9.410817
6.5724826
4.8751977
3.8956582
3.2817221
2.8839353
2.6137296
2.4183147
2.2726433
2.1617686
2.0759397
2.0085989
1.9550946
1.9120046
1.876809
1.8476698
1.8232247
1.8024463
1.7845668
1.7689994
1.7552903
22.419508
22.111549
21.559046
21.181194
20.726448
19.904865
18.481348
16.216536
13.015884
9.4153372
6.574793
4.8763078
3.8962046
3.2820511
2.8841826
2.6139196
2.4184601
2.2727558
2.1618581
2.0760132
2.0086612
1.955149
1.9120532
1.8768534
1.8477111
1.8232637
1.8024835
1.7846028
1.7690344
1.7553247
22.422997
22.114842
21.561578
21.183179
20.727993
19.906441
18.484038
16.221246
13.021673
9.4198599
6.577112
4.8774269
3.8967599
3.2823874
2.8844355
2.6141139
2.4186088
2.2728711
2.1619499
2.0760885
2.0087251
1.9552047
1.912103
1.8768989
1.8477534
1.8233036
1.8025216
1.7846395
1.7690702
1.7553598
22.426489
22.118142
21.56412
21.185174
20.729547
19.90802
18.486713
16.225928
13.027443
9.4243847
6.5794397
4.8785549
3.8973241
3.2827312
2.8846942
2.6143127
2.418761
2.2729892
2.162044
2.0761659
2.0087907
1.955262
1.9121544
1.8769458
1.847797
1.8233447
1.8025609
1.7846775
1.7691071
1.755396
22.429982
22.121448
21.566671
21.18718
20.731112
19.909601
18.489372
16.230581
13.033196
9.4289116
6.5817755
4.8796921
3.8978973
3.283082
2.8849586
2.6145157
2.4189165
2.2731097
2.16214
2.0762448
2.0088576
1.9553204
1.9122066
1.8769935
1.8478413
1.8233865
1.8026008
1.784716
1.7691447
1.7554329
22.433478
22.124761
21.569232
21.189197
20.732686
19.911187
18.492015
16.235207
13.038931
9.4334407
6.5841202
4.880839
3.89848
3.2834407
2.8852289
2.6147233
2.4190756
2.2732333
2.1622385
2.0763258
2.0089264
1.9553805
1.9122604
1.8770427
1.847887
1.8234296
1.802642
1.7847557
1.7691834
1.7554708
22.436976
22.128079
21.571803
21.191225
20.73427
19.912776
18.494644
16.239805
13.044647
9.4379728
6.5864738
4.8819955
3.8990721
3.2838072
2.885505
2.6149354
2.4192382
2.2733595
2.1623393
2.0764087
2.0089968
1.955442
1.9123154
1.8770929
1.8479337
1.8234736
1.802684
1.7847963
1.7692229
1.7555096
22.440476
22.131403
21.574383
21.193264
20.735864
19.91437
18.497257
16.244375
13.050345
9.4425073
6.5888366
4.883162
3.8996738
3.2841817
2.8857873
2.6151522
2.4194044
2.2734888
2.1624425
2.0764937
2.0090691
1.9555051
1.912372
1.8771447
1.8479818
1.823519
1.8027274
1.7848382
1.7692636
1.7555495
22.443977
22.134733
21.576973
21.195313
20.737469
19.915969
18.499854
16.248917
13.056023
9.4470441
6.5912094
4.8843386
3.900285
3.2845638
2.8860754
2.6153734
2.419574
2.2736207
2.1625478
2.0765804
2.0091427
1.9555694
1.9124295
1.8771972
1.8480306
1.823565
1.8027713
1.7848806
1.7693049
1.7555901
22.447481
22.138069
21.579572
21.197374
20.739083
19.917572
18.502437
16.253431
13.061684
9.4515833
6.5935923
4.8855256
3.9009057
3.2849542
2.8863696
2.6155993
2.4197474
2.2737556
2.1626556
2.0766692
2.0092182
1.9556355
1.9124887
1.8772513
1.8480809
1.8236125
1.8028167
1.7849243
1.7693475
1.7556318
22.450985
22.141412
21.582181
21.199445
20.740708
19.91918
18.505005
16.257918
13.067327
9.456125
6.5959858
4.886723
3.9015366
3.2853526
2.88667
2.6158298
2.4199243
2.2738933
2.1627657
2.07676
2.0092954
1.9557029
1.9125491
1.8773065
1.8481322
1.8236609
1.8028629
1.7849689
1.7693909
1.7556744
22.454492
22.144759
21.584799
21.201526
20.742344
19.920793
18.507558
16.262378
13.07295
9.4606694
6.5983898
4.8879313
3.9021779
3.2857593
2.8869767
2.6160652
2.4201049
2.2740341
2.1628784
2.0768529
2.0093744
1.9557721
1.912611
1.8773631
1.8481849
1.8237106
1.8029104
1.7850148
1.7694355
1.7557181
22.458
22.148113
21.587427
21.203619
20.74399
19.922412
18.510096
16.266811
13.078554
9.4652166
6.6008042
4.8891503
3.902829
3.2861741
2.8872895
2.616305
2.4202889
2.2741774
2.1629929
2.0769474
2.0094547
1.9558422
1.9126738
1.8774205
1.8482382
1.8237609
1.8029584
1.7850611
1.7694807
1.7557624
22.461509
22.151472
21.590063
21.205723
20.745647
19.924036
18.51262
16.271217
13.084138
9.4697663
6.6032294
4.8903809
3.9034906
3.2865972
2.8876086
2.6165496
2.4204767
2.2743238
2.1631101
2.0770441
2.009537
1.9559142
1.9127383
1.8774795
1.8482931
1.8238126
1.8030078
1.7851088
1.7695271
1.7558079
22.465021
22.154836
21.592709
21.207837
20.747315
19.925665
18.515129
16.275595
13.089703
9.4743188
6.6056659
4.8916228
3.9041631
3.2870287
2.8879341
2.6167991
2.4206682
2.2744731
2.1632297
2.0771428
2.009621
1.9559876
1.9128041
1.8775396
1.848349
1.8238653
1.8030582
1.7851574
1.7695744
1.7558543
22.468533
22.158205
21.595363
21.209963
20.748995
19.9273
18.517625
16.279947
13.09525
9.4788738
6.6081141
4.8928765
3.9048463
3.2874689
2.888266
2.6170535
2.4208637
2.2746256
2.1633519
2.0772437
2.0097069
1.9560629
1.9128716
1.8776013
1.8484064
1.8239195
1.8031099
1.7852073
1.7696229
1.7559019
22.472048
22.161579
21.598026
21.212099
20.750685
19.928942
18.520106
16.284271
13.100777
9.4834312
6.6105745
4.8941417
3.9055402
3.2879174
2.8886042
2.6173126
2.4210625
2.2747806
2.1634761
2.0773463
2.0097941
1.9561392
1.9129399
1.8776638
1.8484644
1.8239742
1.8031621
1.7852577
1.769672
1.75595
22.475563
22.164959
21.600698
21.214249
20.752387
19.930589
18.522575
16.288569
13.106285
9.4879918
6.6130471
4.8954186
3.906245
3.2883746
2.8889488
2.6175767
2.4212653
2.2749389
2.1636029
2.077451
2.0098833
1.9562172
1.9130098
1.8777278
1.8485239
1.8240304
1.8032158
1.7853095
1.7697224
1.7559993
22.47908
22.168343
21.603379
21.216412
20.754101
19.932242
18.525029
16.29284
13.111772
9.4925554
6.6155315
4.8967079
3.9069608
3.2888407
2.8893002
2.6178457
2.4214718
2.2751
2.163732
2.0775577
2.0099741
1.9562967
1.913081
1.8777928
1.8485844
1.8240874
1.8032703
1.7853621
1.7697735
1.7560495
22.482598
22.171733
21.606068
21.218586
20.755827
19.933901
18.52747
16.297084
13.117241
9.4971216
6.6180279
4.8980097
3.907688
3.2893157
2.8896583
2.6181198
2.4216823
2.2752644
2.1638638
2.0776667
2.0100669
1.9563779
1.9131539
1.8778595
1.8486464
1.8241459
1.8033261
1.785416
1.769826
1.7561009
22.486117
22.175127
21.608766
21.220772
20.757565
19.935566
18.529898
16.301302
13.122689
9.5016907
6.6205373
4.8993242
3.9084265
3.2897997
2.8900229
2.6183988
2.4218964
2.2754316
2.1639978
2.0777773
2.010161
1.9564603
1.9132276
1.8779269
1.848709
1.824205
1.8033825
1.7854704
1.7698789
1.7561528
22.489637
22.178525
21.611472
21.222969
20.759316
19.937237
18.532314
16.305495
13.128118
9.5062622
6.6230598
4.9006518
3.9091766
3.2902929
2.8903944
2.6186831
2.4221147
2.275602
2.1641345
2.0778903
2.0102573
1.9565445
1.9133032
1.877996
1.8487733
1.8242656
1.8034404
1.7855262
1.7699332
1.756206
22.493159
22.181928
21.614186
21.225177
20.761079
19.938915
18.534717
16.309662
13.133527
9.5108364
6.6255962
4.9019928
3.9099385
3.2907953
2.8907726
2.6189725
2.4223369
2.2757755
2.1642736
2.0780053
2.0103552
1.9566303
1.91338
1.8780662
1.8488386
1.8243272
1.8034992
1.7855829
1.7699884
1.7562601
22.496681
22.185336
21.616908
21.227395
20.762856
19.940598
18.537109
16.313804
13.138916
9.5154129
6.6281467
4.9033469
3.9107122
3.2913069
2.8911579
2.6192672
2.4225632
2.2759523
2.1644156
2.0781227
2.0104553
1.9567179
1.9134586
1.8781381
1.8489054
1.8243903
1.8035595
1.7856411
1.770045
1.7563155
22.500205
22.188748
21.619638
21.229625
20.764645
19.942288
18.53949
16.317922
13.144286
9.5199917
6.6307111
4.9047141
3.9114977
3.2918274
2.8915497
2.6195667
2.4227933
2.2761319
2.1645597
2.0782418
2.0105567
1.9568067
1.9135381
1.8782107
1.848973
1.8244539
1.8036203
1.7856997
1.7701021
1.7563715
22.50373
22.192165
21.622376
21.231865
20.766447
19.943984
18.54186
16.322015
13.149636
9.5245731
6.6332896
4.9060949
3.9122956
3.2923573
2.8919487
2.6198716
2.4230274
2.2763149
2.1647065
2.0783634
2.0106603
1.9568974
1.9136194
1.8782851
1.8490421
1.8245192
1.8036826
1.7857598
1.7701605
1.7564288
22.507256
22.195586
21.625121
21.234115
20.768262
19.945687
18.544221
16.326083
13.154965
9.5291568
6.6358827
4.9074893
3.9131053
3.2928962
2.8923545
2.6201816
2.4232655
2.2765009
2.1648558
2.0784869
2.0107656
1.9569895
1.913702
1.8783606
1.8491124
1.8245854
1.8037458
1.7858208
1.7702199
1.7564869
22.510782
22.19901
21.627874
21.236377
20.77009
19.947397
18.546574
16.330128
13.160273
9.5337419
6.6384907
4.9088979
3.9139272
3.2934448
2.8927673
2.6204969
2.4235078
2.2766903
2.165008
2.0786128
2.0108729
1.9570836
1.9137864
1.8784378
1.8491841
1.8246531
1.8038105
1.7858832
1.7702805
1.7565463
22.514309
22.202438
21.630635
21.238649
20.771931
19.949113
18.548919
16.334147
13.165561
9.5383286
6.6411137
4.9103199
3.914761
3.2940026
2.8931867
2.6208171
2.4237536
2.2768825
2.1651622
2.0787405
2.0109816
1.9571787
1.9138716
1.8785157
1.8492565
1.8247214
1.8038757
1.7859461
1.7703417
1.7566063
22.517836
22.20587
21.633403
21.240931
20.773784
19.950836
18.551257
16.338144
13.17083
9.5429168
6.6437526
4.9117562
3.9156069
3.2945699
2.8936131
2.6211425
2.4240036
2.2770779
2.1653193
2.0788705
2.0110925
1.9572758
1.9139587
1.8785953
1.8493306
1.8247913
1.8039423
1.7860104
1.7704043
1.7566676
22.521364
22.209306
21.636179
21.243224
20.77565
19.952566
18.553589
16.342117
13.176078
9.5475062
6.6464069
4.9132066
3.9164652
3.2951467
2.8940464
2.6214731
2.4242575
2.2772764
2.1654788
2.0790025
2.011205
1.9573743
1.914047
1.878676
1.8494056
1.8248621
1.8040099
1.7860756
1.7704677
1.7567297
22.524893
22.212745
21.638962
21.245527
20.777529
19.954304
18.555915
16.346067
13.181307
9.5520967
6.6490769
4.9146708
3.9173359
3.2957329
2.8944867
2.621809
2.4245155
2.2774783
2.165641
2.0791369
2.0113196
1.9574747
1.914137
1.8787584
1.8494822
1.8249343
1.8040789
1.7861421
1.7705324
1.7567931
22.528422
22.216188
21.641752
21.24784
20.779421
19.956049
18.558235
16.349996
13.186514
9.556688
6.6517626
4.9161493
3.918219
3.2963283
2.8949337
2.6221499
2.4247773
2.2776829
2.1658055
2.079273
2.0114356
1.9575762
1.914228
1.8788416
1.8495595
1.8250072
1.8041485
1.7862092
1.7705977
1.7568571
22.531952
22.219634
21.644549
21.250163
20.781325
19.957802
18.560551
16.353903
13.191702
9.5612799
6.6544654
4.9176426
3.9191148
3.2969332
2.8953877
2.6224962
2.4250431
2.2778909
2.1659727
2.0794115
2.0115537
1.9576797
1.9143208
1.8789264
1.8496384
1.8250817
1.8042196
1.7862778
1.7706644
1.7569224
22.535482
22.223082
21.647353
21.252497
20.783243
19.959562
18.562862
16.357788
13.19687
9.5658715
6.6571854
4.9191507
3.9200234
3.2975476
2.8958486
2.6228476
2.4253129
2.2781019
2.1661424
2.079552
2.0116735
1.9577846
1.9144148
1.8790124
1.8497184
1.8251571
1.8042916
1.7863472
1.7707319
1.7569885
22.539013
22.226534
21.650162
21.25484
20.785173
19.961331
18.56517
16.361653
13.202019
9.5704629
6.659923
4.9206734
3.9209445
3.2981714
2.8963165
2.6232044
2.4255868
2.2783163
2.1663148
2.0796948
2.0117953
1.9578914
1.9145105
1.8790999
1.8497998
1.8252339
1.8043649
1.7864179
1.7708007
1.7570559
22.542544
22.229988
21.652979
21.257193
20.787116
19.963108
18.567475
16.365499
13.207149
9.5750536
6.6626777
4.9222101
3.9218782
3.2988046
2.8967913
2.623566
2.4258643
2.2785333
2.1664893
2.0798393
2.0119186
1.9579993
1.9146072
1.8791883
1.849882
1.8253114
1.8044389
1.7864893
1.7708701
1.7571239
22.546076
22.233445
21.655801
21.259556
20.789072
19.964893
18.569777