/*--------------------------------*- C++ -*----------------------------------*\
| =========                 |                                                 |
| \\      /  F ield         | OpenFOAM: The Open Source CFD Toolbox           |
|  \\    /   O peration     | Version:  v2012                                 |
|   \\  /    A nd           | Website:  www.openfoam.com                      |
|    \\/     M anipulation  |                                                 |
\*---------------------------------------------------------------------------*/
FoamFile
{
    version     2.0;
    format      ascii;
    class       volScalarField;
    location    "200";
    object      T;
}
// * * * * * * * * * * * * * * * * * * * * * * * * * * * * * * * * * * * * * //

dimensions      [0 0 0 1 0 0 0];


internalField   nonuniform List<scalar> 
24000
(
42.695532
42.848201
43.192997
43.466636
43.840274
44.642865
46.382862
50.324547
59.819747
80.660342
112.47286
146.48952
178.79216
208.32838
233.60265
254.91669
272.95872
288.19203
301.03552
311.86017
320.98261
328.68273
335.21078
340.77981
345.56545
349.71046
353.33035
356.51865
359.35133
361.89031
42.693841
42.846601
43.191897
43.465789
43.83965
44.642347
46.382081
50.324634
59.82205
80.536386
112.1659
146.04298
178.24628
207.73033
232.99874
254.32054
272.38349
287.64468
300.51955
311.37582
320.5265
328.24944
334.79469
340.37604
345.17031
349.32132
352.94546
356.13688
358.97198
361.51294
42.692073
42.845063
43.19093
43.465027
43.838829
44.641241
46.379394
50.316672
59.788428
80.453945
112.0294
145.85971
178.02419
207.48177
232.73373
254.0423
272.09713
287.35578
300.23288
311.09681
320.2595
327.99547
334.55233
340.14282
344.94367
349.09917
352.72628
355.91971
358.75624
361.29832
42.6903
42.843487
43.189844
43.464119
43.83789
44.63999
46.376146
50.307393
59.766112
80.420291
111.9874
145.81459
177.98336
207.44475
232.71389
254.04706
272.13193
287.42126
300.32295
311.20336
320.37462
328.11353
334.67021
340.25924
345.0584
349.21241
352.83836
356.0309
358.86673
361.40824
42.688525
42.841897
43.188704
43.463154
43.836907
44.638647
46.37265
50.297689
59.744895
80.393869
111.96441
145.79394
177.96457
207.4267
232.69667
254.03082
272.11531
287.40248
300.30375
311.18475
320.35725
328.09767
334.65583
340.24613
345.04627
349.20099
352.82742
356.02026
358.85626
361.39786
42.68675
42.840287
43.187515
43.462147
43.835918
44.637261
46.368959
50.288094
59.723832
80.369813
111.94892
145.7851
177.96075
207.42648
232.69853
254.03488
272.12148
287.41061
300.31361
311.1959
320.3692
328.11003
334.66835
340.25868
345.05879
349.21346
352.83983
356.03262
358.86857
361.41011
42.684976
42.838661
43.186293
43.461114
43.834933
44.6358
46.365206
50.27858
59.702523
80.34581
111.93451
145.77805
177.95899
207.42829
232.70173
254.03927
272.12666
287.41631
300.31968
311.20222
320.3757
328.11668
334.67513
340.26557
345.06576
349.22049
352.8469
356.03969
358.87563
361.41714
42.683199
42.837021
43.185046
43.460065
43.833945
44.634297
46.361402
50.26905
59.680999
80.321141
111.91924
145.77034
177.95687
207.42998
232.70501
254.0439
272.13221
287.42251
300.32632
311.20916
320.3828
328.12389
334.68242
340.27291
345.07314
349.22789
352.8543
356.04708
358.883
361.42448
42.681421
42.835372
43.183782
43.459004
43.832945
44.632772
46.357551
50.259395
59.659448
80.295595
111.90246
145.76103
177.95316
207.43018
232.70696
254.04732
272.13664
287.42762
300.33191
311.21505
320.38888
328.13009
334.68871
340.27927
345.07954
349.23432
352.86074
356.05352
358.88943
361.43087
42.679642
42.833714
43.182504
43.457934
43.831935
44.631231
46.353659
50.249638
59.637877
80.269196
111.88411
145.74997
177.94772
207.42873
232.70743
254.04942
272.13991
287.43171
300.33656
311.22008
320.39415
328.13552
334.69426
340.28491
345.08525
349.24007
352.86651
356.0593
358.89519
361.43662
42.67786
42.832051
43.181217
43.456858
43.830914
44.629675
46.349738
50.239796
59.616313
80.242044
111.86431
145.73729
177.94109
207.42571
232.70649
254.05029
272.1421
287.43484
300.34037
311.22434
320.39871
328.14029
334.69918
340.28993
345.09035
349.24522
352.87169
356.06449
358.90037
361.44178
42.676077
42.830385
43.179919
43.455773
43.829885
44.628109
46.345797
50.229891
59.594746
80.214252
111.84326
145.72318
177.93256
207.42127
232.70429
254.05004
272.14332
287.43713
300.34342
311.22793
320.40266
328.14449
334.70356
340.29445
345.09496
349.2499
352.8764
356.06922
358.9051
361.44649
42.674293
42.828715
43.178614
43.45468
43.828849
44.626534
46.341848
50.21995
59.573179
80.185927
111.82116
145.70782
177.92274
207.41558
232.70096
254.04879
272.14366
287.43865
300.34581
311.23092
320.40606
328.14818
334.70747
340.29851
345.09914
349.25415
352.8807
356.07354
358.90942
361.4508
42.672507
42.827042
43.177301
43.453579
43.827808
44.624955
46.337898
50.20999
59.551616
80.157159
111.79816
145.69136
177.91178
207.40876
232.6966
254.0466
272.14316
287.43943
300.34753
311.23331
320.40892
328.15137
334.7109
340.30213
345.10289
349.25799
352.8846
356.07747
358.91336
361.45472
42.670719
42.825365
43.175983
43.45247
43.826761
44.623371
46.33395
50.20002
59.530071
80.128014
111.77439
145.67394
177.8998
207.40092
232.69129
254.04356
272.1419
287.43952
300.34863
311.23513
320.41125
328.15406
334.71386
340.30528
345.10619
349.26139
352.88807
356.08097
358.91687
361.45823
42.66893
42.823686
43.17466
43.451355
43.825709
44.621786
46.330009
50.190052
59.508555
80.098549
111.74995
145.65566
177.8869
207.39215
232.68512
254.03973
272.13992
287.43896
300.34912
311.2364
320.41305
328.15626
334.71634
340.30798
345.10904
349.26435
352.8911
356.08405
358.91997
361.46131
42.667139
42.822004
43.173331
43.450233
43.824653
44.6202
46.32608
50.180102
59.487054
80.068806
111.72491
145.63661
177.87315
207.38253
232.67815
254.03517
272.13729
287.43779
300.34907
311.23715
320.41438
328.158
334.71839
340.31025
345.11148
349.26691
352.89373
356.08672
358.92265
361.464
42.665347
42.820319
43.171999
43.449107
43.823592
44.618613
46.322164
50.17017
59.465573
80.038821
111.69934
145.61686
177.85864
207.37213
232.67045
254.02993
272.13403
287.43607
300.34851
311.23744
320.41526
328.15932
334.72004
340.31215
345.11355
349.26911
352.89602
356.08905
358.92501
361.46635
42.663556
42.818631
43.170662
43.447975
43.822526
44.617027
46.318264
50.160261
59.444113
80.008623
111.67329
145.59647
177.84341
207.36101
232.66207
254.02408
272.13022
287.43384
300.34749
311.2373
320.41575
328.16028
334.72134
340.3137
345.11529
349.27097
352.89797
356.09106
358.92704
361.46838
42.661764
42.816941
43.169319
43.446838
43.821455
44.615443
46.314383
50.150389
59.422697
79.978229
111.6468
145.57547
177.82752
207.34921
232.65305
254.01764
272.12587
287.43114
300.34603
311.23676
320.41588
328.16088
334.7223
340.31493
345.11672
349.27254
352.89963
356.09278
358.92879
361.47013
42.65997
42.815249
43.167971
43.445696
43.82038
44.613862
46.310521
50.140554
59.401313
79.947652
111.61989
145.55392
177.811
207.33677
232.64344
254.01064
272.12103
287.42798
300.34416
311.23584
320.41565
328.16115
334.72295
340.31586
345.11784
349.27382
352.90101
356.09421
358.93025
361.47159
42.658176
42.813554
43.166617
43.444548
43.8193
44.612282
46.306686
50.130753
59.379958
79.916906
111.59261
145.53185
177.79389
207.32372
232.63324
254.00312
272.1157
287.42438
300.34189
311.23455
320.41507
328.16111
334.72329
340.3165
345.1187
349.27483
352.90213
356.09539
358.93146
361.47281
42.65638
42.811856
43.165258
43.443395
43.818215
44.610704
46.302873
50.120993
59.358633
79.885998
111.56497
145.50927
177.77621
207.31009
232.6225
253.99508
272.10991
287.42036
300.33923
311.23291
320.41416
328.16074
334.72333
340.31684
345.11927
349.27556
352.90296
356.0963
358.9324
361.47375
42.654582
42.810156
43.163894
43.442235
43.817126
44.609128
46.29908
50.111277
59.337347
79.854941
111.53698
145.4862
177.75797
207.2959
232.61122
253.98654
272.10366
287.41592
300.33619
311.23091
320.41293
328.16007
334.72309
340.31691
345.11957
349.27603
352.90355
356.09696
358.93309
361.47446
42.652784
42.808454
43.162525
43.441069
43.816034
44.607554
46.295309
50.101602
59.316115
79.823733
111.50865
145.46267
177.7392
207.28115
232.59941
253.97752
272.09697
287.41108
300.33279
311.22858
320.41139
328.15911
334.72256
340.3167
345.11961
349.27623
352.90387
356.09735
358.93353
361.4749
42.650985
42.806749
43.16115
43.439897
43.814936
44.605982
46.291562
50.091969
59.29492
79.792375
111.47999
145.43868
177.71991
207.26587
232.58709
253.96803
272.08984
287.40585
300.32902
311.22592
320.40954
328.15786
334.72176
340.31625
345.1194
349.27621
352.90397
356.09753
358.93375
361.47513
42.649188
42.805044
43.159769
43.438719
43.813833
44.604411
46.287839
50.082386
59.273764
79.760869
111.45102
145.41424
177.70011
207.25007
232.57428
253.95808
272.0823
287.40024
300.32491
311.22294
320.40738
328.15633
334.72069
340.31552
345.11894
349.27593
352.90382
356.09746
358.93372
361.47512
42.64739
42.803336
43.158384
43.437535
43.812726
44.602842
46.284137
50.07285
59.252649
79.729215
111.42173
145.38936
177.67981
207.23375
232.56097
253.94767
272.07435
287.39426
300.32047
311.21965
320.40494
328.15452
334.71936
340.31456
345.11824
349.27542
352.90345
356.09717
358.93348
361.47489
42.645591
42.801627
43.156993
43.436345
43.811613
44.601274
46.280457
50.063357
59.231591
79.69742
111.39212
145.36405
177.65901
207.21693
232.54719
253.93682
272.06599
287.38791
300.31568
311.21605
320.40222
328.15244
334.71778
340.31334
345.11729
349.27467
352.90283
356.09664
358.933
361.47442
42.643791
42.799914
43.155596
43.435149
43.810494
44.599708
46.276798
50.053912
59.210587
79.665476
111.36221
145.33832
177.63772
207.1996
232.53293
253.92553
272.05723
287.3812
300.31057
311.21215
320.39922
328.15012
334.71596
340.3119
345.11614
349.27372
352.90203
356.09593
358.93234
361.47378
42.641989
42.798199
43.154194
43.433946
43.80937
44.598146
46.273159
50.044514
59.18963
79.633383
111.332
145.31216
177.61596
207.1818
232.51821
253.91383
272.0481
287.37415
300.30515
311.20797
320.39596
328.14755
334.7139
340.31023
345.11476
349.27255
352.901
356.095
358.93146
361.47291
42.640186
42.796482
43.152787
43.432736
43.808241
44.596584
46.26954
50.035159
59.168721
79.601141
111.3015
145.28561
177.59373
207.16352
232.50304
253.90171
272.0386
287.36677
300.29944
311.20352
320.39246
328.14475
334.71164
340.30837
345.11319
349.2712
352.8998
356.0939
358.93041
361.47188
42.638383
42.794766
43.151374
43.431521
43.807107
44.595024
46.265941
50.025848
59.147863
79.56875
111.2707
145.25863
177.57104
207.14477
232.48742
253.88918
272.02873
287.35906
300.29343
311.19881
320.3887
328.14172
334.70915
340.30629
345.11141
349.26965
352.8984
356.0926
358.92916
361.47066
42.636578
42.793048
43.149956
43.430299
43.805969
44.593464
46.262362
50.016587
59.127078
79.536208
111.2396
145.23125
177.54788
207.12556
232.47137
253.87625
272.01849
287.35102
300.28713
311.19384
320.38472
328.13849
334.70648
340.30405
345.10949
349.26795
352.89686
356.09116
358.92779
361.4693
42.634772
42.791327
43.148533
43.429071
43.804826
44.591904
46.258801
50.007373
59.10635
79.503509
111.20821
145.20347
177.52427
207.10588
232.45487
253.86292
272.0079
287.34266
300.28054
311.1886
320.3805
328.13502
334.70359
340.30158
345.10735
349.26605
352.89512
356.08953
358.92621
361.46775
42.632965
42.789604
43.147104
43.427836
43.803677
44.590345
46.255264
49.998203
59.085677
79.470649
111.17652
145.17528
177.5002
207.08573
232.43793
253.84918
271.99694
287.33398
300.27366
311.1831
320.37604
328.13134
334.7005
340.29894
345.10504
349.26398
352.89323
356.08774
358.92449
361.46605
42.631157
42.787878
43.14567
43.426595
43.802523
44.588786
46.251746
49.989077
59.065061
79.437627
111.14454
145.14669
177.47567
207.06513
232.42056
253.83504
271.98562
287.32498
300.26649
311.17734
320.37133
328.12743
334.69719
340.29609
345.10252
349.26171
352.89113
356.08576
358.92257
361.46416
42.629348
42.78615
43.14423
43.425348
43.801363
44.587226
46.248245
49.979997
59.04451
79.404445
111.11227
145.11768
177.45068
207.04406
232.40275
253.8205
271.97394
287.31565
300.25903
311.17132
320.3664
328.12332
334.6937
340.29307
345.09986
349.2593
352.8889
356.08365
358.92053
361.46214
42.627542
42.784419
43.142786
43.424094
43.800198
44.585666
46.244761
49.970959
59.024041
79.371096
111.0797
145.08827
177.42523
207.02251
232.38449
253.80555
271.96188
287.30598
300.25127
311.16502
320.3612
328.11896
334.68997
340.28982
345.09697
349.25667
352.88645
356.08132
358.91827
361.45991
42.625734
42.782687
43.141336
43.422834
43.799028
44.584106
46.241294
49.961962
59.003634
79.337573
111.04684
145.05845
177.39931
207.0005
232.36578
253.79018
271.94945
287.29598
300.2432
311.15844
320.35575
328.11437
334.68603
340.28637
345.09388
349.25386
352.88383
356.07882
358.91584
361.45751
42.623925
42.780952
43.139881
43.421568
43.797853
44.582545
46.237846
49.953008
58.983294
79.303873
111.01368
145.02822
177.37291
206.97801
232.34661
253.7744
271.93664
287.28563
300.23481
311.15158
320.35004
328.10952
334.68185
340.28269
345.09057
349.25082
352.88098
356.0761
358.91319
361.45489
42.622116
42.779215
43.138422
43.420295
43.796673
44.580983
46.234414
49.944102
58.963021
79.269994
110.98023
144.99758
177.34606
206.95505
232.32701
253.75821
271.92346
287.27495
300.22614
311.14445
320.34409
328.10447
334.67748
340.27884
345.08711
349.24764
352.878
356.07325
358.91042
361.45215
42.620306
42.777475
43.13696
43.419017
43.795487
44.57942
46.230996
49.935235
58.942828
79.235938
110.94647
144.96652
177.31873
206.93161
232.30695
253.74159
271.9099
287.26392
300.21714
311.13703
320.33787
328.09915
334.67285
340.27473
345.0834
349.24421
352.87478
356.07016
358.90741
361.44917
42.618495
42.775732
43.135493
43.417735
43.794297
44.577856
46.227592
49.926406
58.922695
79.201739
110.91242
144.93503
177.29092
206.90768
232.28642
253.72456
271.89595
287.25255
300.20783
311.12933
320.33138
328.0936
334.66801
340.27043
345.07949
349.2406
352.87138
356.0669
358.90422
361.44602
42.616683
42.773985
43.134025
43.416447
43.793101
44.57629
46.224202
49.917623
58.902592
79.167425
110.87806
144.90312
177.26262
206.88326
232.26543
253.70708
271.88161
287.24081
300.19819
311.12131
320.32461
328.08777
334.6629
340.26586
345.07533
349.23674
352.86773
356.06339
358.9008
361.44263
42.614873
42.772236
43.132552
43.415155
43.7919
44.574722
46.220826
49.908877
58.882521
79.132999
110.8434
144.87079
177.23385
206.85836
232.24399
253.68919
271.86689
287.22873
300.18824
311.11303
320.3176
328.08172
334.65759
340.26112
345.07101
349.23273
352.86393
356.05974
358.89724
361.4391
42.613064
42.770485
43.131076
43.413857
43.790695
44.573153
46.217462
49.900168
58.862482
79.098464
110.80844
144.83803
177.20459
206.83297
232.22208
253.67087
271.85177
287.2163
300.17796
311.10444
320.31029
328.0754
334.65201
340.25611
345.06643
349.22846
352.85989
356.05584
358.89342
361.43533
42.611255
42.768733
43.129595
43.412555
43.789484
44.571582
46.21411
49.891497
58.842491
79.063816
110.77318
144.80483
177.17485
206.80709
232.1997
253.65212
271.83627
287.20351
300.16737
311.09556
320.30272
328.06883
334.64621
340.25089
345.06165
349.224
352.85566
356.05176
358.88943
361.43137
42.609446
42.766978
43.128109
43.411248
43.788268
44.570011
46.210771
49.882867
58.822542
79.029051
110.7376
144.7712
177.14462
206.78072
232.17686
253.63293
271.82037
287.19036
300.15645
311.08637
320.29487
328.06199
334.64015
340.24541
345.05661
349.21929
352.85117
356.04743
358.8852
361.42718
42.607635
42.76522
43.12662
43.409937
43.787048
44.568437
46.207443
49.874279
58.802626
78.99417
110.70171
144.73714
177.1139
206.75387
232.15356
253.61333
271.80409
287.17687
300.14522
311.07691
320.28677
328.05493
334.63388
340.23976
345.05141
349.21443
352.84655
356.04297
358.88082
361.42284
42.605825
42.763459
43.125126
43.408624
43.785822
44.566861
46.204129
49.865726
58.782743
78.959175
110.6655
144.70264
177.0827
206.72651
232.12979
253.59329
271.78741
287.16302
300.13365
311.06714
320.27836
328.04758
334.62734
340.23383
345.04594
349.2093
352.84166
356.03824
358.87619
361.41825
42.604014
42.761696
43.123628
43.407308
43.784592
44.565283
46.200828
49.857211
58.762893
78.924068
110.62898
144.6677
177.051
206.69866
232.10554
253.57281
271.77033
287.1488
300.12176
311.05707
320.2697
328.03999
334.62057
340.22768
345.04027
349.20397
352.83657
356.03332
358.87137
361.41348
42.602202
42.759931
43.122127
43.405988
43.783357
44.563701
46.197538
49.848736
58.743093
78.888841
110.59213
144.63231
177.01878
206.6703
232.08081
253.55188
271.75284
287.13421
300.10952
311.04668
320.26072
328.0321
334.61351
340.22126
345.03432
349.19837
352.83123
356.02814
358.86629
361.40845
42.60039
42.758167
43.120621
43.404663
43.782117
44.562117
46.194258
49.840295
58.723331
78.853494
110.55496
144.59647
176.98607
206.64144
232.05561
253.53053
271.73497
287.11928
300.09697
311.036
320.2515
328.02399
334.60626
340.21465
345.02821
349.19262
352.82573
356.02282
358.86107
361.40327
42.598578
42.756401
43.119111
43.403334
43.780872
44.56053
46.190988
49.831888
58.703602
78.818029
110.51746
144.56018
176.95285
206.61207
232.02992
253.50872
271.71668
287.10396
300.08406
311.025
320.24196
328.01558
334.59871
340.20776
345.02181
349.18659
352.81996
356.01722
358.85558
361.39783
42.596765
42.754632
43.117598
43.402
43.779622
44.55894
46.187729
49.823515
58.683904
78.78245
110.47962
144.52343
176.91912
206.58219
232.00375
253.48646
271.69799
287.08827
300.07083
311.0137
320.23215
328.00692
334.59092
340.20065
345.0152
349.18035
352.81399
356.01143
358.84989
361.3922
42.594953
42.752861
43.11608
43.400662
43.778368
44.557346
46.184481
49.815183
58.664236
78.746749
110.44144
144.48621
176.88487
206.55178
231.97708
253.46375
271.67887
287.07221
300.05724
311.00207
320.22203
327.99796
334.58285
340.19325
345.00832
349.17385
352.80775
356.00537
358.84395
361.3863
42.593142
42.751087
43.114559
43.39932
43.777108
44.555749
46.181241
49.806887
58.64462
78.710924
110.40292
144.44852
176.8501
206.52087
231.94993
253.44061
271.65937
287.05579
300.04334
310.99016
320.21166
327.98877
334.57457
340.18567
345.00126
349.16717
352.80136
355.99916
358.83785
361.38026
42.591332
42.749312
43.113034
43.397973
43.775845
44.55415
46.178009
49.798623
58.625038
78.674979
110.36404
144.41037
176.81482
206.48943
231.92229
253.417
271.63944
287.03898
300.02908
310.97791
320.20097
327.97927
334.56599
340.17779
344.99391
349.16022
352.79468
355.99267
358.83148
361.37394
42.589521
42.747534
43.111506
43.396621
43.774579
44.552549
46.174785
49.790396
58.605485
78.638916
110.32482
144.37174
176.779
206.45745
231.89415
253.39294
271.6191
287.0218
300.01448
310.96535
320.18999
327.96951
334.55717
340.16968
344.98634
349.15305
352.78779
355.98598
358.8249
361.36742
42.587711
42.745754
43.109973
43.395266
43.773307
44.550945
46.171569
49.782203
58.585961
78.60273
110.28523
144.33262
176.74265
206.42494
231.8655
253.3684
271.59832
287.00422
299.99951
310.95245
320.17869
327.95944
334.54805
340.16128
344.97849
349.1456
352.78063
355.97901
358.81805
361.36063
42.5859
42.743971
43.108437
43.393906
43.772031
44.549338
46.168361
49.774042
58.566468
78.566419
110.24528
144.29302
176.70577
206.3919
231.83635
253.34342
271.57714
286.98628
299.98422
310.93926
320.16712
327.94914
334.5387
340.15268
344.97045
349.13797
352.7733
355.97188
358.81104
361.35367
42.58409
42.742187
43.106897
43.392541
43.770751
44.547726
46.165159
49.765912
58.547023
78.529984
110.20496
144.25294
176.66836
206.35833
231.8067
253.31796
271.55553
286.96795
299.96856
310.92573
320.15523
327.93852
334.52906
340.14378
344.96211
349.13005
352.76568
355.96446
358.80375
361.34644
42.582279
42.740401
43.105354
43.391172
43.769465
44.546111
46.161965
49.757813
58.527608
78.49343
110.16427
144.21235
176.6304
206.32423
231.77655
253.29205
271.53351
286.94924
299.95256
310.91188
320.14306
327.92763
334.51917
340.13465
344.95355
349.12191
352.75785
355.95684
358.79625
361.339
42.580469
42.738612
43.103807
43.389799
43.768174
44.544493
46.158778
49.749751
58.508222
78.456752
110.1232
144.17127
176.5919
206.28959
231.74589
253.26567
271.51105
286.93013
299.9362
310.8977
320.13057
327.91645
334.50898
340.12523
344.94471
349.11351
352.74975
355.94894
358.78849
361.3313
42.578662
42.736822
43.102256
43.388422
43.766879
44.54287
46.155597
49.741723
58.488864
78.419947
110.08175
144.1297
176.55287
206.25442
231.71473
253.23884
271.48819
286.91067
299.91952
310.88323
320.11782
327.90503
334.49859
340.11562
344.93569
349.10492
352.74148
355.94089
358.78057
361.32345
42.576856
42.73503
43.100703
43.38704
43.76558
44.541244
46.152424
49.733724
58.469535
78.383017
110.0399
144.08762
176.51329
206.2187
231.68306
253.21152
271.46489
286.8908
299.90247
310.86841
320.10474
327.89329
334.48788
340.1057
344.92638
349.09605
352.73292
355.93255
358.77236
361.31531
42.575051
42.733239
43.099148
43.385654
43.764277
44.539613
46.149262
49.725759
58.450251
78.345967
109.99766
144.04502
176.47315
206.18244
231.65086
253.18374
271.44117
286.87055
299.88507
310.85328
320.09137
327.88128
334.47692
340.09555
344.91683
349.08696
352.72415
355.924
358.76395
361.30696
42.573245
42.731445
43.097589
43.384263
43.762968
44.537979
46.146106
49.717827
58.430994
78.308795
109.95502
144.00191
176.43245
206.14562
231.61814
253.15546
271.41699
286.84989
299.86728
310.83779
320.07766
327.86895
334.46565
340.08509
344.90699
349.07757
352.71509
355.91517
358.75525
361.29833
42.57144
42.72965
43.09603
43.382868
43.761655
44.536341
46.142956
49.709923
58.411763
78.271496
109.91197
143.95829
176.3912
206.10825
231.58491
253.12672
271.3924
286.82886
299.84917
310.822
320.06369
327.85638
334.45417
340.07444
344.89696
349.06801
352.70587
355.90617
358.74639
361.28954
42.569635
42.727854
43.094468
43.381469
43.760337
44.534699
46.139811
49.702048
58.392558
78.234073
109.86851
143.91414
176.34939
206.07033
231.55115
253.09748
271.36737
286.80741
299.83067
310.80585
320.04937
327.84348
334.44236
340.06347
344.88663
349.05814
352.69634
355.89687
358.73724
361.28046
42.56783
42.726055
43.092903
43.380066
43.759013
44.533052
46.136675
49.694201
58.37338
78.196533
109.82463
143.86946
176.30702
206.03184
231.51687
253.06778
271.3419
286.78558
299.81183
310.78939
320.03477
327.83031
334.43031
340.05226
344.87606
349.04806
352.6866
355.88736
358.72788
361.27118
42.566026
42.724255
43.091334
43.378658
43.757684
44.531402
46.133546
49.686384
58.354246
78.158872
109.78032
143.82426
176.26408
205.99279
231.48205
253.03757
271.31598
286.76333
299.79261
310.77257
320.01983
327.81683
334.41794
340.04075
344.8652
349.03768
352.67657
355.87757
358.71823
361.26161
42.564222
42.722456
43.089762
43.377246
43.756351
44.529747
46.130421
49.678603
58.335138
78.121088
109.73559
143.77853
176.22058
205.95318
231.44672
253.0069
271.28964
286.74072
299.77305
310.75547
320.00463
327.80311
334.40536
340.02906
344.85417
349.02714
352.66638
355.86763
358.70844
361.25189
42.562419
42.720656
43.088186
43.37583
43.755011
44.528087
46.127302
49.670848
58.316053
78.083184
109.69042
143.73225
176.1765
205.91301
231.41084
252.97573
271.26285
286.71768
299.7531
310.73798
319.98908
327.78905
334.39246
340.01703
344.84281
349.01628
352.65588
355.85737
358.69834
361.24187
42.560615
42.718856
43.086608
43.374409
43.753667
44.526425
46.124187
49.663121
58.296992
78.045168
109.64481
143.68544
176.13185
205.87227
231.37443
252.94407
271.23561
286.69424
299.7328
310.72018
319.97322
327.77471
334.37929
340.00476
344.83123
349.0052
352.64516
355.8469
358.68803
361.23163
42.558814
42.717053
43.085026
43.372984
43.752317
44.524758
46.121077
49.655427
58.277958
78.007037
109.59875
143.63807
176.08662
205.83096
231.33748
252.91191
271.20791
286.67038
299.7121
310.702
319.95702
327.76004
334.3658
339.99218
344.81933
348.99381
352.63414
355.83614
358.67742
361.2211
42.557015
42.71525
43.083442
43.371556
43.750961
44.523088
46.11797
49.647757
58.258965
77.96879
109.55223
143.59016
176.04081
205.78909
231.30001
252.87927
271.17979
286.64615
299.69107
310.68354
319.94057
327.74514
334.3521
339.9794
344.80725
348.98226
352.62297
355.82522
358.66666
361.21043
42.555217
42.713445
43.081854
43.370124
43.7496
44.521412
46.114868
49.640113
58.239996
77.930432
109.50525
143.54171
175.99443
205.74665
231.26199
252.84614
271.15121
286.62149
299.66965
310.6647
319.92375
327.7299
334.33807
339.96631
344.79486
348.97039
352.61148
355.81399
358.65559
361.19945
42.553419
42.711639
43.080264
43.368691
43.748234
44.519731
46.111769
49.632493
58.22105
77.891971
109.45781
143.4927
175.94747
205.70363
231.22343
252.8125
271.12218
286.59643
299.64786
310.64554
319.90664
327.71438
334.32379
339.95297
344.78224
348.9583
352.59977
355.80255
358.64432
361.18826
42.551621
42.709831
43.07867
43.367256
43.746861
44.518045
46.108673
49.624896
58.202125
77.853405
109.4099
143.44312
175.89991
205.66003
231.18432
252.77835
271.09268
286.57093
299.62567
310.62599
319.88917
327.69851
334.30917
339.9393
344.7693
348.9459
352.58776
355.7908
358.63274
361.17677
42.549825
42.708023
43.077074
43.365816
43.745483
44.516354
46.105579
49.617328
58.183224
77.814735
109.36151
143.39299
175.85176
205.61584
231.14466
252.74371
271.06273
286.54504
299.60313
310.60614
319.87143
327.68241
334.29434
339.92544
344.75618
348.93333
352.57558
355.7789
358.62101
361.16512
42.548029
42.706213
43.075476
43.364373
43.744099
44.514657
46.102488
49.609785
58.16436
77.775968
109.31262
143.3423
175.80302
205.57106
231.10445
252.70855
271.03231
286.51871
299.58019
310.5859
319.85332
327.66595
334.27915
339.91123
344.74271
348.92042
352.56307
355.76666
358.60895
361.15316
42.546233
42.704403
43.073875
43.362926
43.74271
44.512954
46.0994
49.602264
58.145518
77.737112
109.26324
143.29102
175.75368
205.5257
231.0637
252.6729
271.00144
286.49197
299.55687
310.56533
319.83489
327.6492
334.2637
339.89677
344.72901
348.90728
352.55034
355.75421
358.59667
361.14097
42.54444
42.702591
43.072271
43.361475
43.741314
44.511246
46.096316
49.594766
58.126694
77.698165
109.21335
143.23919
175.70375
205.47976
231.02238
252.63672
270.97009
286.46479
299.53314
310.54437
319.8161
327.6321
334.2479
339.88198
344.71497
348.89381
352.53728
355.74144
358.58408
361.12847
42.54265
42.700779
43.070665
43.360021
43.739912
44.509531
46.093233
49.58729
58.107888
77.659131
109.16296
143.18679
175.65324
205.43324
230.98053
252.60005
270.9383
286.43723
299.50907
310.52311
319.79704
327.61476
334.23188
339.86699
344.70076
348.88017
352.52406
355.7285
358.57132
361.11581
42.540861
42.698967
43.069057
43.358563
43.738505
44.507813
46.090149
49.579832
58.089101
77.620021
109.11204
143.13381
175.60212
205.38613
230.93811
252.56287
270.90604
286.40923
299.48459
310.50145
319.77761
327.59705
334.21552
339.85165
344.6862
348.86619
352.51051
355.71524
358.55824
361.10283
42.539073
42.697156
43.067446
43.357102
43.737091
44.506089
46.087066
49.57239
58.070345
77.580842
109.06059
143.08027
175.55041
205.33843
230.89515
252.52518
270.87332
286.38081
299.45974
310.47946
319.75787
327.57906
334.19889
339.83606
344.6714
348.85198
352.49673
355.70175
358.54494
361.08963
42.537286
42.695345
43.065834
43.355638
43.735671
44.504359
46.083984
49.564964
58.051607
77.541593
109.0086
143.02615
175.49809
205.29015
230.85163
252.48697
270.84012
286.35196
299.43448
310.45709
319.73777
327.56072
334.18191
339.82013
344.65627
348.83745
352.48263
355.68795
358.53133
361.07611
42.5355
42.693533
43.06422
43.354171
43.734247
44.502622
46.0809
49.557553
58.032881
77.50228
108.95607
142.97145
175.44518
205.24129
230.80757
252.44828
270.80649
286.32272
299.40888
310.43442
319.71739
327.54214
334.16472
339.80401
344.64096
348.82275
352.46836
355.67398
358.51756
361.06244
42.533715
42.691721
43.062606
43.3527
43.732818
44.500878
46.077815
49.550162
58.014166
77.462916
108.90298
142.9162
175.39167
205.19184
230.76295
252.40908
270.77239
286.29304
299.38287
310.41136
319.69665
327.52321
334.14718
339.78754
344.62532
348.80771
352.45376
355.65969
358.50346
361.04845
42.531931
42.689909
43.06099
43.351227
43.731384
44.499126
46.074726
49.542785
57.995463
77.423508
108.84931
142.86037
175.33757
205.14179
230.71779
252.36937
270.73784
286.26296
299.3565
310.38796
319.6756
327.50399
334.12938
339.77083
344.60943
348.79244
352.43895
355.64519
358.48915
361.03425
42.530147
42.688096
43.059373
43.34975
43.729945
44.497368
46.071635
49.535419
57.976782
77.384055
108.79506
142.80398
175.28286
205.09116
230.67207
252.32915
270.70282
286.23244
299.32971
310.36418
319.65419
327.48441
334.11123
339.75378
344.59322
348.77686
352.42381
355.63036
358.47453
361.01973
42.528365
42.686286
43.057758
43.34827
43.728499
44.495603
46.068539
49.528068
57.958111
77.344571
108.74022
142.74702
175.22757
205.03994
230.6258
252.28843
270.66735
286.20153
299.30258
310.3401
319.6325
327.4646
334.09287
339.73653
344.57681
348.76108
352.4085
355.61537
358.45974
361.00504
42.526583
42.684478
43.056141
43.346788
43.727048
44.49383
46.065439
49.520727
57.939442
77.305066
108.68476
142.6895
175.17167
204.98813
230.57898
252.24721
270.63141
286.17018
299.27504
310.31562
319.61044
327.44442
334.07415
339.71894
344.56007
348.74498
352.39286
355.60005
358.44462
360.99004
42.524804
42.682669
43.054523
43.345303
43.725593
44.492049
46.062335
49.513393
57.920772
77.265546
108.62867
142.63142
175.11516
204.93574
230.53161
252.20548
270.59502
286.13843
299.24713
310.29082
319.58808
327.42396
334.05517
339.70109
344.54309
348.72864
352.37699
355.58451
358.42929
360.97482
42.523027
42.68086
43.052904
43.343815
43.724134
44.490262
46.059225
49.506064
57.902103
77.226016
108.57194
142.57278
175.05806
204.88276
230.48368
252.16325
270.55817
286.10624
299.21883
310.26564
319.56536
327.40316
334.03586
339.68293
344.5258
348.712
352.36082
355.56867
358.41366
360.9593
42.521252
42.679052
43.051283
43.342324
43.72267
44.488467
46.05611
49.498741
57.883443
77.18645
108.51462
142.51361
175.00036
204.82921
230.43522
252.12053
270.52089
286.07368
299.19019
310.24016
319.54237
327.38212
334.01632
339.66455
344.50831
348.69517
352.34447
355.55265
358.39785
360.94361
42.519477
42.677244
43.049662
43.340831
43.721201
44.486664
46.052989
49.491421