/*--------------------------------*- C++ -*----------------------------------*\
| =========                 |                                                 |
| \\      /  F ield         | OpenFOAM: The Open Source CFD Toolbox           |
|  \\    /   O peration     | Version:  v2012                                 |
|   \\  /    A nd           | Website:  www.openfoam.com                      |
|    \\/     M anipulation  |                                                 |
\*---------------------------------------------------------------------------*/
FoamFile
{
    version     2.0;
    format      ascii;
    class       volVectorField;
    location    "200";
    object      U;
}
// * * * * * * * * * * * * * * * * * * * * * * * * * * * * * * * * * * * * * //

dimensions      [0 1 -1 0 0 0 0];


internalField   nonuniform List<vector> 
24000
(
(23.897829 0.0013082856 0)
(24.174687 0.0061924284 0)
(24.290812 0.010712004 0)
(24.328735 0.013731924 0)
(24.389741 0.017626155 0)
(24.503838 0.021601615 0)
(24.697629 0.02476987 0)
(24.999851 0.025125347 0)
(25.457109 0.015338777 0)
(26.171704 -0.011512773 0)
(27.160605 -0.048298037 0)
(28.111407 -0.07837625 0)
(28.597122 -0.097374936 0)
(28.283423 -0.10647036 0)
(27.056929 -0.10583321 0)
(25.086024 -0.098410989 0)
(22.614977 -0.086911439 0)
(19.90594 -0.073790781 0)
(17.166017 -0.060568908 0)
(14.535736 -0.048243099 0)
(12.103986 -0.037171251 0)
(9.9172578 -0.027585005 0)
(7.9882047 -0.019594921 0)
(6.3091119 -0.013224939 0)
(4.8615522 -0.0083931436 0)
(3.6224577 -0.0049238859 0)
(2.5677301 -0.0025844404 0)
(1.6742396 -0.0011272662 0)
(0.92078232 -0.00034499384 0)
(0.28840757 -1.6175043e-05 0)
(23.893931 0.0014616992 0)
(24.171076 0.0054995534 0)
(24.289109 0.0079920686 0)
(24.329962 0.0087413857 0)
(24.395493 0.008848989 0)
(24.515586 0.0078237006 0)
(24.716648 0.0057855734 0)
(25.028358 0.0026242293 0)
(25.498195 -0.0028537649 0)
(26.224277 -0.01072663 0)
(27.224545 -0.019214118 0)
(28.190251 -0.026741374 0)
(28.697638 -0.033343034 0)
(28.41613 -0.038217515 0)
(27.228779 -0.040544444 0)
(25.300844 -0.040899779 0)
(22.874783 -0.039318649 0)
(20.213347 -0.036252317 0)
(17.523462 -0.031940404 0)
(14.941664 -0.026792319 0)
(12.549092 -0.021349459 0)
(10.383516 -0.016148195 0)
(8.4518931 -0.011574384 0)
(6.7456894 -0.0078293345 0)
(5.2499229 -0.0049548808 0)
(3.9473709 -0.0028842326 0)
(2.8203469 -0.001492067 0)
(1.8514828 -0.00063388758 0)
(1.0241258 -0.00018455039 0)
(0.32256912 -4.5847857e-06 0)
(23.893039 0.0014303931 0)
(24.170726 0.0049214823 0)
(24.288285 0.0064538589 0)
(24.328195 0.0064403717 0)
(24.39181 0.005749779 0)
(24.508308 0.0041742206 0)
(24.703844 0.002288071 0)
(25.007901 0.00070521625 0)
(25.467073 -0.00028090243 0)
(26.17989 -0.00031190838 0)
(27.16741 -0.0004534773 0)
(28.12515 -0.00074994189 0)
(28.630619 -0.00042756351 0)
(28.351661 0.00045168665 0)
(27.168567 0.0024390249 0)
(25.243829 0.0047891231 0)
(22.816506 0.0070642786 0)
(20.14667 0.008692958 0)
(17.440669 0.0093662879 0)
(14.836779 0.0090572567 0)
(12.4208 0.0079908911 0)
(10.236707 0.0065039202 0)
(8.2960124 0.0049151035 0)
(6.5918614 0.0034546962 0)
(5.1084102 0.0022545519 0)
(3.8260768 0.0013440789 0)
(2.724341 0.00070757402 0)
(1.7831974 0.00030596516 0)
(0.98387072 9.0780344e-05 0)
(0.3091202 2.6895868e-06 0)
(23.891294 0.0013350887 0)
(24.169133 0.0042584278 0)
(24.286473 0.0050959574 0)
(24.325994 0.0045769099 0)
(24.388961 0.0034653953 0)
(24.504393 0.0017280063 0)
(24.698322 0.00020522388 0)
(25.000558 -0.00015285304 0)
(25.458095 0.0008222746 0)
(26.170027 0.0027052451 0)
(27.15793 0.0037238909 0)
(28.117758 0.003804778 0)
(28.626704 0.0035175793 0)
(28.352208 0.0025174169 0)
(27.173968 0.0018097452 0)
(25.253243 0.0010472066 0)
(22.828424 0.00035547486 0)
(20.160083 -0.00025962229 0)
(17.456299 -0.00073724157 0)
(14.856171 -0.0010232067 0)
(12.445097 -0.0011054482 0)
(10.265639 -0.0010218862 0)
(8.3279032 -0.00084101124 0)
(6.6242865 -0.0006277004 0)
(5.1389201 -0.00042684248 0)
(3.852678 -0.00026204382 0)
(2.7456817 -0.00014114746 0)
(1.7985507 -6.2628319e-05 0)
(0.9930198 -1.9050842e-05 0)
(0.31221419 -7.2837731e-07 0)
(23.889413 0.0011935102 0)
(24.167224 0.0036844247 0)
(24.284265 0.0040997247 0)
(24.323342 0.0033439654 0)
(24.385679 0.0021206314 0)
(24.500204 0.00046286258 0)
(24.692769 -0.00070312095 0)
(24.993518 -0.00047454387 0)
(25.449763 0.0011932539 0)
(26.160536 0.0038436232 0)
(27.147458 0.0055256218 0)
(28.106779 0.0061268583 0)
(28.615367 0.005919869 0)
(28.340404 0.0052009257 0)
(27.161844 0.0043593984 0)
(25.241024 0.0035557394 0)
(22.816435 0.0028310349 0)
(20.148761 0.0022368567 0)
(17.445242 0.0017575096 0)
(14.844988 0.0013599844 0)
(12.43361 0.0010249888 0)
(10.253998 0.00074585133 0)
(8.3165194 0.00051962474 0)
(6.6136698 0.00034379587 0)
(5.1295358 0.00021409497 0)
(3.8448636 0.00012300241 0)
(2.7396248 6.2941967e-05 0)
(1.7943062 2.6625742e-05 0)
(0.99054226 7.7209615e-06 0)
(0.31139212 2.6323201e-07 0)
(23.887311 0.0010540992 0)
(24.165 0.0032123327 0)
(24.281802 0.0033673349 0)
(24.32056 0.0024930545 0)
(24.382495 0.0012387513 0)
(24.496412 -0.00033664497 0)
(24.687965 -0.0012995416 0)
(24.987622 -0.00082091216 0)
(25.442829 0.0010805562 0)
(26.152722 0.003957484 0)
(27.139102 0.0058344123 0)
(28.09831 0.0064979248 0)
(28.606767 0.0063092502 0)
(28.331393 0.0054894807 0)
(27.152496 0.0045220732 0)
(25.231648 0.0035701309 0)
(22.807397 0.002703379 0)
(20.140372 0.0019804814 0)
(17.437729 0.0014027131 0)
(14.838522 0.00096259875 0)
(12.428289 0.0006407815 0)
(10.249805 0.00041428571 0)
(8.3133448 0.00025973653 0)
(6.6113514 0.00015715204 0)
(5.1279002 9.0875957e-05 0)
(3.8437534 4.940074e-05 0)
(2.7389093 2.4316323e-05 0)
(1.7938824 9.937331e-06 0)
(0.9903314 2.7846094e-06 0)
(0.3113338 9.8458903e-08 0)
(23.885036 0.0009315066 0)
(24.162568 0.0028418891 0)
(24.279184 0.0028371693 0)
(24.317706 0.0019001561 0)
(24.379347 0.00064348015 0)
(24.49276 -0.00087690517 0)
(24.683414 -0.0017450949 0)
(24.982044 -0.0011508716 0)
(25.43621 0.00083353786 0)
(26.145216 0.0037549459 0)
(27.131008 0.0057160914 0)
(28.089991 0.0064557671 0)
(28.598082 0.0062971877 0)
(28.322002 0.0055280968 0)
(27.142483 0.0045745645 0)
(25.221358 0.0036370267 0)
(22.797275 0.002777675 0)
(20.130795 0.0020590562 0)
(17.428952 0.0014825657 0)
(14.830695 0.0010397856 0)
(12.42147 0.00071059985 0)
(10.243985 0.00047276127 0)
(8.3084775 0.00030490912 0)
(6.6073736 0.00018931469 0)
(5.1247401 0.00011185706 0)
(3.8413348 6.1592891e-05 0)
(2.7371548 3.0532193e-05 0)
(1.7927156 1.2578166e-05 0)
(0.98967861 3.5776654e-06 0)
(0.3111258 9.8722537e-08 0)
(23.882622 0.00083047698 0)
(24.159988 0.0025583411 0)
(24.276469 0.0024525883 0)
(24.314818 0.0014767405 0)
(24.37623 0.00022134556 0)
(24.489199 -0.0012716307 0)
(24.678998 -0.002103052 0)
(24.976622 -0.0014510018 0)
(25.429759 0.00055914902 0)
(26.137889 0.0034520961 0)
(27.123113 0.005442188 0)
(28.081897 0.0062306816 0)
(28.589646 0.0061006546 0)
(28.312882 0.0053664198 0)
(27.132755 0.0044399921 0)
(25.211369 0.0035262733 0)
(22.787463 0.0026866868 0)
(20.121543 0.0019845091 0)
(17.420526 0.001422197 0)
(14.82325 0.00099191769 0)
(12.415069 0.00067388512 0)
(10.238609 0.00044581734 0)
(8.3040596 0.00028623656 0)
(6.6038256 0.00017720803 0)
(5.1219667 0.00010464526 0)
(3.8392425 5.7903981e-05 0)
(2.7356557 2.8930487e-05 0)
(1.7917292 1.2006218e-05 0)
(0.98913189 3.4364033e-06 0)
(0.31095328 1.1682819e-07 0)
(23.880099 0.00075041164 0)
(24.157303 0.0023443736 0)
(24.27369 0.002172803 0)
(24.311906 0.0011700028 0)
(24.373123 -8.6879903e-05 0)
(24.485677 -0.0015696246 0)
(24.674634 -0.0023898514 0)
(24.971248 -0.0017091655 0)
(25.423369 0.00030550736 0)
(26.130617 0.003151512 0)
(27.115271 0.0051473549 0)
(28.073872 0.0059796144 0)
(28.5813 0.0058768519 0)
(28.303882 0.0051799255 0)
(27.12318 0.0042886507 0)
(25.201556 0.0034070164 0)
(22.777842 0.0025961375 0)
(20.11248 0.001917637 0)
(17.412274 0.001374156 0)
(14.815957 0.00095818433 0)
(12.40879 0.00065057083 0)
(10.233326 0.00042985854 0)
(8.2997098 0.0002753208 0)
(6.6003246 0.00016976476 0)
(5.1192245 9.961431e-05 0)
(3.83717 5.4466695e-05 0)
(2.7341684 2.6789767e-05 0)
(1.790749 1.0942319e-05 0)
(0.98858785 3.0919257e-06 0)
(0.31078131 7.4809244e-08 0)
(23.877491 0.00068882239 0)
(24.154541 0.0021839766 0)
(24.270863 0.0019678658 0)
(24.308975 0.00094629879 0)
(24.370016 -0.00031433967 0)
(24.482167 -0.0017969967 0)
(24.670287 -0.0026171933 0)
(24.965888 -0.0019240195 0)
(25.417004 8.6038514e-05 0)
(26.123365 0.0028856309 0)
(27.107452 0.0048765242 0)
(28.065892 0.0057441787 0)
(28.573033 0.0056674233 0)
(28.295011 0.0050026539 0)
(27.113785 0.0041456615 0)
(25.191967 0.003294668 0)
(22.768469 0.0025117984 0)
(20.103669 0.0018565779 0)
(17.404263 0.0013316552 0)
(14.808882 0.00092966775 0)
(12.402704 0.00063219358 0)
(10.228208 0.00041856525 0)
(8.2954969 0.00026885733 0)
(6.5969354 0.00016645155 0)
(5.1165711 9.8242284e-05 0)
(3.8351656 5.4270685e-05 0)
(2.7327307 2.7048872e-05 0)
(1.7898021 1.1196845e-05 0)
(0.98806259 3.2028862e-06 0)
(0.31061539 1.0384937e-07 0)
(23.874819 0.00064239933 0)
(24.151724 0.0020645853 0)
(24.268003 0.0018170677 0)
(24.306026 0.00078323565 0)
(24.366902 -0.00048194923 0)
(24.478656 -0.001969803 0)
(24.66594 -0.0027948631 0)
(24.960525 -0.0020987598 0)
(25.410641 -9.7574253e-05 0)
(26.116114 0.0026626945 0)
(27.099641 0.0046440318 0)
(28.057941 0.0055377877 0)
(28.564826 0.0054849276 0)
(28.286245 0.0048471182 0)
(27.104545 0.0040206887 0)
(25.182573 0.0031966861 0)
(22.759311 0.0024385814 0)
(20.095076 0.0018037989 0)
(17.396455 0.0012950011 0)
(14.801987 0.00090500714 0)
(12.396768 0.00061600607 0)
(10.223211 0.0004081104 0)
(8.2913786 0.00026213951 0)
(6.5936183 0.0001621376 0)
(5.1139714 9.5467029e-05 0)
(3.8331999 5.2429636e-05 0)
(2.73132 2.5927758e-05 0)
(1.7888726 1.0655011e-05 0)
(0.98754693 3.0256512e-06 0)
(0.31045252 7.885944e-08 0)
(23.872098 0.00060777473 0)
(24.148866 0.0019769875 0)
(24.265115 0.0017072092 0)
(24.303059 0.00066487353 0)
(24.363779 -0.00060438456 0)
(24.475139 -0.0020994773 0)
(24.661588 -0.0029316404 0)
(24.955152 -0.0022388749 0)
(25.404275 -0.00024863868 0)
(26.108859 0.0024793177 0)
(27.091834 0.0044485668 0)
(28.050012 0.0053605412 0)
(28.556671 0.0053280207 0)
(28.277571 0.0047119839 0)
(27.095441 0.0039119535 0)
(25.173349 0.0031111302 0)
(22.750344 0.0023746146 0)
(20.086678 0.0017578618 0)
(17.388831 0.0012634714 0)
(14.795254 0.00088430544 0)
(12.390967 0.00060303762 0)
(10.21832 0.00040040728 0)
(8.2873419 0.00025790366 0)
(6.5903615 0.0001600617 0)
(5.111415 9.4660457e-05 0)
(3.8312645 5.23625e-05 0)
(2.7299295 2.6120351e-05 0)
(1.7879558 1.0825765e-05 0)
(0.98703816 3.1034757e-06 0)
(0.31029185 9.9720595e-08 0)
(23.86934 0.0005823438 0)
(24.145978 0.0019135977 0)
(24.262205 0.0016288017 0)
(24.300079 0.0005803787 0)
(24.360646 -0.00069201807 0)
(24.471613 -0.0021947662 0)
(24.657226 -0.0030353363 0)
(24.949766 -0.0023503531 0)
(25.3979 -0.00037190076 0)
(26.101596 0.0023288249 0)
(27.084031 0.0042841303 0)
(28.042103 0.0052083553 0)
(28.548561 0.0051918995 0)
(28.268977 0.0045933171 0)
(27.086453 0.0038152171 0)
(25.164272 0.0030337077 0)
(22.741543 0.0023152754 0)
(20.078449 0.0017136451 0)
(17.381369 0.0012314655 0)
(14.788666 0.00086170645 0)
(12.385291 0.0005873988 0)
(10.213533 0.00038976076 0)
(8.2833878 0.00025072554 0)
(6.5871686 0.00015527011 0)
(5.1089064 9.1497762e-05 0)
(3.8293637 5.0268014e-05 0)
(2.7285629 2.4846606e-05 0)
(1.7870544 1.0194638e-05 0)
(0.98653787 2.8890082e-06 0)
(0.31013386 6.8588595e-08 0)
(23.866555 0.00056403603 0)
(24.143066 0.0018685178 0)
(24.259278 0.0015742321 0)
(24.297085 0.00052181084 0)
(24.357504 -0.00075269348 0)
(24.468077 -0.0022628616 0)
(24.652856 -0.0031126702 0)
(24.944367 -0.0024386935 0)
(25.391515 -0.00047244298 0)
(26.094327 0.0022047051 0)
(27.07623 0.0041449173 0)
(28.034211 0.0050775523 0)
(28.540487 0.0050737964 0)
(28.260448 0.004489816 0)
(27.077562 0.0037306662 0)
(25.155321 0.0029658286 0)
(22.732885 0.0022632142 0)
(20.07037 0.0016749867 0)
(17.374054 0.0012037885 0)
(14.782215 0.00084258664 0)
(12.379735 0.00057470175 0)
(10.208848 0.00038170266 0)
(8.2795164 0.00024592857 0)
(6.5840411 0.00015266066 0)
(5.1064479 9.0280097e-05 0)
(3.8274999 4.9906034e-05 0)
(2.7272225 2.4865834e-05 0)
(1.7861701 1.0292099e-05 0)
(0.98604701 2.947356e-06 0)
(0.30997889 9.0830462e-08 0)
(23.86375 0.00055127356 0)
(24.140136 0.0018373246 0)
(24.256336 0.0015378111 0)
(24.294081 0.00048321753 0)
(24.354352 -0.00079259855 0)
(24.464532 -0.0023097836 0)
(24.648477 -0.003169361 0)
(24.938956 -0.0025086836 0)
(25.385118 -0.00055480584 0)
(26.08705 0.002101605 0)
(27.068432 0.0040260923 0)
(28.026334 0.004964131 0)
(28.532444 0.0049703107 0)
(28.251973 0.004398341 0)
(27.068753 0.0036553507 0)
(25.146476 0.0029046152 0)
(22.72435 0.0022154216 0)
(20.062421 0.0016385664 0)
(17.366868 0.0011767371 0)
(14.775886 0.00082295376 0)
(12.374291 0.00056076493 0)
(10.204262 0.00037201646 0)
(8.275731 0.00023932774 0)
(6.5809854 0.00014826813 0)
(5.1040475 8.7437789e-05 0)
(3.8256813 4.8108797e-05 0)
(2.7259152 2.3829972e-05 0)
(1.785308 9.8041649e-06 0)
(0.98556874 2.7869994e-06 0)
(0.30982796 6.9930889e-08 0)
(23.860929 0.00054273899 0)
(24.137192 0.0018166108 0)
(24.253383 0.0015152435 0)
(24.291068 0.00045999848 0)
(24.351192 -0.00081654766 0)
(24.460979 -0.0023401999 0)
(24.64409 -0.0032098605 0)
(24.933532 -0.0025641146 0)
(25.37871 -0.00062280478 0)
(26.079766 0.0020148872 0)
(27.060634 0.0039238522 0)
(28.018467 0.0048653505 0)
(28.524425 0.0048796884 0)
(28.243541 0.0043178866 0)
(27.060011 0.0035890259 0)
(25.137719 0.0028508044 0)
(22.715916 0.0021735839 0)
(20.054581 0.0016069656 0)
(17.359791 0.0011536095 0)
(14.769662 0.00080653985 0)
(12.368943 0.00054949469 0)
(10.199761 0.00036455255 0)
(8.2720191 0.00023461952 0)
(6.5779918 0.00014547987 0)
(5.1016979 8.5935736e-05 0)
(3.8239025 4.7441168e-05 0)
(2.7246374 2.3605364e-05 0)
(1.7844658 9.7644634e-06 0)
(0.98510173 2.7996596e-06 0)
(0.30968066 8.545427e-08 0)
(23.858097 0.00053747466 0)
(24.134238 0.0018037839 0)
(24.25042 0.0015031775 0)
(24.288046 0.00044851618 0)
(24.348024 -0.00082825272 0)
(24.457417 -0.0023576811 0)
(24.639695 -0.0032373481 0)
(24.928097 -0.0026078854 0)
(25.372289 -0.00067997079 0)
(26.072474 0.0019405993 0)
(27.052839 0.0038349428 0)
(28.01061 0.0047787132 0)
(28.516425 0.004800086 0)
(28.235145 0.0042471486 0)
(27.051324 0.003530816 0)
(25.129034 0.0028035831 0)
(22.707568 0.0021367444 0)
(20.046832 0.001578872 0)
(17.352806 0.0011326629 0)
(14.763525 0.00079122439 0)
(12.363675 0.00053849782 0)
(10.195333 0.00035680159 0)
(8.2683712 0.00022924801 0)
(6.5750526 0.00014183653 0)
(5.0993931 8.3527031e-05 0)
(3.822159 4.5888987e-05 0)
(2.7233858 2.2690543e-05 0)
(1.7836414 9.3138099e-06 0)
(0.98464474 2.6371011e-06 0)
(0.30953656 5.8146959e-08 0)
(23.855257 0.00053470364 0)
(24.131276 0.001796837 0)
(24.247449 0.0014990032 0)
(24.285017 0.00044585833 0)
(24.344848 -0.00083071638 0)
(24.453847 -0.0023652514 0)
(24.635294 -0.0032546622 0)
(24.922653 -0.0026423628 0)
(25.365858 -0.00072854909 0)
(26.065176 0.0018763809 0)
(27.045046 0.0037570857 0)
(28.002763 0.004702288 0)
(28.508443 0.0047301638 0)
(28.22678 0.0041854048 0)
(27.042685 0.0034806444 0)
(25.120414 0.0027635785 0)
(22.699295 0.0021062797 0)
(20.039162 0.001556406 0)
(17.345898 0.0011166674 0)
(14.757461 0.00078021408 0)
(12.358473 0.00053119649 0)
(10.190961 0.00035216465 0)
(8.2647708 0.0002264852 0)
(6.5721525 0.00014033827 0)
(5.0971194 8.2843638e-05 0)
(3.8204394 4.5701515e-05 0)
(2.7221516 2.2723801e-05 0)
(1.7828286 9.3932746e-06 0)
(0.98419428 2.6897662e-06 0)
(0.30939454 7.9090852e-08 0)
(23.852411 0.00053381007 0)
(24.128307 0.0017942018 0)
(24.244471 0.0015006495 0)
(24.281982 0.00044975082 0)
(24.341666 -0.00082636918 0)
(24.450271 -0.0023653755 0)
(24.630889 -0.0032642361 0)
(24.917201 -0.0026696102 0)
(25.359419 -0.00077022764 0)
(26.057875 0.001820249 0)
(27.037258 0.003688152 0)
(27.994926 0.0046338163 0)
(28.500478 0.0046674219 0)
(28.218444 0.0041300324 0)
(27.034091 0.0034356488 0)
(25.111852 0.0027276503 0)
(22.691088 0.0020787458 0)
(20.031563 0.0015358331 0)
(17.339061 0.0011016878 0)
(14.751462 0.00076953205 0)
(12.353331 0.00052371979 0)
(10.186643 0.00034701494 0)
(8.2612161 0.00022298408 0)
(6.5692906 0.00013799544 0)
(5.0948767 8.1302504e-05 0)
(3.8187439 4.4707142e-05 0)
(2.7209352 2.2135647e-05 0)
(1.7820277 9.1048603e-06 0)
(0.9837505 2.5881266e-06 0)
(0.30925466 6.1479779e-08 0)
(23.849561 0.00053429539 0)
(24.125332 0.0017946144 0)
(24.241487 0.0015064606 0)
(24.278941 0.00045839238 0)
(24.338478 -0.00081717517 0)
(24.446689 -0.0023600133 0)
(24.62648 -0.0032680847 0)
(24.911743 -0.0026915924 0)
(25.352971 -0.00080654804 0)
(26.05057 0.0017707935 0)
(27.029474 0.0036269789 0)
(27.987101 0.0045723175 0)
(28.492529 0.0046109315 0)
(28.210133 0.0040801756 0)
(27.025533 0.0033951524 0)
(25.103338 0.0026954015 0)
(22.682939 0.0020541574 0)
(20.024025 0.0015176515 0)
(17.332284 0.0010887003 0)
(14.745521 0.00076056941 0)
(12.348239 0.00051776516 0)
(10.182367 0.00034322832 0)
(8.2576966 0.00022071867 0)
(6.5664571 0.00013675181 0)
(5.0926561 8.0715324e-05 0)
(3.8170651 4.4515439e-05 0)
(2.7197307 2.2127683e-05 0)
(1.7812346 9.1495865e-06 0)
(0.98331109 2.6257882e-06 0)
(0.30911615 7.8279157e-08 0)
(23.846708 0.00053577348 0)
(24.122354 0.0017971082 0)
(24.238498 0.0015151592 0)
(24.275895 0.00047035467 0)
(24.335284 -0.00080454805 0)
(24.443101 -0.0023505049 0)
(24.622068 -0.0032676615 0)
(24.906281 -0.0027096032 0)
(25.346518 -0.00083874158 0)
(26.043263 0.0017262718 0)
(27.021698 0.0035719525 0)
(27.979286 0.0045164583 0)
(28.484594 0.0045594311 0)
(28.201844 0.0040346858 0)
(27.017008 0.0033580523 0)
(25.094868 0.0026656339 0)
(22.67484 0.002031121 0)
(20.01654 0.0015001715 0)
(17.325561 0.0010757028 0)
(14.739631 0.00075106698 0)
(12.343196 0.00051093862 0)
(10.178135 0.00033841028 0)
(8.2542158 0.00021737675 0)
(6.5636562 0.00013447953 0)
(5.0904622 7.9202405e-05 0)
(3.8154071 4.3539112e-05 0)
(2.7185414 2.1548786e-05 0)
(1.7804517 8.8567186e-06 0)
(0.98287734 2.5110032e-06 0)
(0.30897945 5.402461e-08 0)
(23.843853 0.00053790321 0)
(24.119371 0.0018008595 0)
(24.235503 0.0015256723 0)
(24.272845 0.00048445726 0)
(24.332085 -0.00078955536 0)
(24.439509 -0.0023380161 0)
(24.617657 -0.003264089 0)
(24.900816 -0.0027243323 0)
(25.34006 -0.00086767611 0)
(26.035957 0.001685132 0)
(27.013929 0.0035213445 0)
(27.971483 0.0044648893 0)
(28.476674 0.0045119354 0)
(28.193575 0.0039929497 0)
(27.008514 0.0033242619 0)
(25.086437 0.0026388304 0)
(22.666787 0.0020107453 0)
(20.009105 0.0014851342 0)
(17.318887 0.0010649747 0)
(14.733788 0.00074366888 0)
(12.338195 0.00050602309 0)
(10.173939 0.00033528789 0)
(8.2507655 0.00021551836 0)
(6.5608806 0.00013347863 0)
(5.0882885 7.8758864e-05 0)
(3.8137647 4.3424478e-05 0)
(2.7173636 2.158118e-05 0)
(1.7796765 8.9229909e-06 0)
(0.98244792 2.5595147e-06 0)
(0.30884411 7.4702509e-08 0)
(23.840996 0.00054043597 0)
(24.116384 0.0018052104 0)
(24.232504 0.0015371254 0)
(24.26979 0.00049978848 0)
(24.328881 -0.0007730819 0)
(24.435913 -0.002323703 0)
(24.613246 -0.0032584318 0)
(24.895351 -0.0027365902 0)
(25.333599 -0.0008939934 0)
(26.028652 0.0016469293 0)
(27.006168 0.0034743578 0)
(27.963691 0.0044168548 0)
(28.468766 0.0044675811 0)
(28.185325 0.0039539593 0)
(27.000045 0.0032927008 0)
(25.078041 0.0026137277 0)
(22.658776 0.0019915151 0)
(20.001716 0.00147072 0)
(17.31226 0.0010544231 0)
(14.727989 0.00073610006 0)
(12.333234 0.00050069483 0)
(10.169781 0.00033159731 0)
(8.2473479 0.0002130007 0)
(6.5581328 0.00013179098 0)
(5.0861377 7.7646657e-05 0)
(3.8121402 4.2715856e-05 0)
(2.7161989 2.116543e-05 0)
(1.7789102 8.7152131e-06 0)
(0.9820235 2.4813633e-06 0)
(0.30871038 5.8745666e-08 0)
(23.838137 0.00054314069 0)
(24.113395 0.0018096562 0)
(24.2295 0.001548912 0)
(24.26673 0.00051568689 0)
(24.325673 -0.00075584621 0)
(24.432314 -0.0023082807 0)
(24.608837 -0.0032511346 0)
(24.889887 -0.0027470685 0)
(25.327137 -0.00091872355 0)
(26.021351 0.0016109487 0)
(26.998418 0.0034302008 0)
(27.955912 0.0043714368 0)
(28.460872 0.0044256306 0)
(28.177091 0.0039171289 0)
(26.991601 0.0032629347 0)
(25.069677 0.0025900992 0)
(22.650801 0.001973469 0)
(19.994365 0.00145729 0)
(17.305671 0.001044733 0)
(14.722227 0.00072933137 0)
(12.328307 0.00049613329 0)
(10.165651 0.00032864971 0)
(8.2439539 0.00021119706 0)
(6.5554039 0.00013076882 0)
(5.0840016 7.7137651e-05 0)
(3.8105268 4.251181e-05 0)
(2.7150423 2.1117849e-05 0)
(1.7781491 8.7320146e-06 0)
(0.98160196 2.5101834e-06 0)
(0.30857755 7.4569447e-08 0)
(23.835277 0.0005458784 0)
(24.110401 0.0018138494 0)
(24.226492 0.0015605683 0)
(24.263666 0.00053164961 0)
(24.32246 -0.00073848092 0)
(24.428712 -0.0022922454 0)
(24.604432 -0.0032426401 0)
(24.884427 -0.002756461 0)
(25.320677 -0.00094261188 0)
(26.014054 0.0015766937 0)
(26.990679 0.003388879 0)
(27.948145 0.0043289197 0)
(28.452988 0.0043866482 0)
(28.168871 0.003883056 0)
(26.983177 0.0032355652 0)
(25.06134 0.002568406 0)
(22.642859 0.0019568182 0)
(19.98705 0.001444703 0)
(17.29912 0.0010353764 0)
(14.716503 0.00072246622 0)
(12.323416 0.00049118291 0)
(10.161555 0.00032514132 0)
(8.2405902 0.00020876692 0)
(6.5527014 0.00012912577 0)
(5.0818874 7.6052382e-05 0)
(3.8089308 4.1833906e-05 0)
(2.7138985 2.072687e-05 0)
(1.7773967 8.5297421e-06 0)
(0.98118528 2.4187507e-06 0)
(0.30844626 4.9999873e-08 0)
(23.832415 0.00054851839 0)
(24.107404 0.001817524 0)
(24.22348 0.0015717371 0)
(24.260599 0.0005472639 0)
(24.319243 -0.00072135975 0)
(24.425109 -0.0022758919 0)
(24.600031 -0.0032335395 0)
(24.878971 -0.0027651568 0)
(25.314218 -0.00096560845 0)
(26.006762 0.0015439177 0)
(26.982951 0.0033500272 0)
(27.940391 0.0042887587 0)
(28.445116 0.0043501688 0)
(28.160665 0.0038513213 0)
(26.974772 0.003210377 0)
(25.053027 0.0025487593 0)
(22.634947 0.0019420708 0)
(19.979766 0.0014339039 0)
(17.292599 0.0010276941 0)
(14.710807 0.00071716608 0)
(12.31855 0.00048764033 0)
(10.157481 0.00032286969 0)
(8.2372456 0.00020738803 0)
(6.5500147 0.00012835758 0)
(5.079786 7.5690561e-05 0)
(3.8073448 4.1703904e-05 0)
(2.712762 2.0713632e-05 0)
(1.7766492 8.5643366e-06 0)
(0.9807714 2.4588898e-06 0)
(0.30831586 7.055905e-08 0)
(23.829551 0.00055092141 0)
(24.104402 0.0018204353 0)
(24.220463 0.0015821642 0)
(24.257527 0.00056224479 0)
(24.316022 -0.00070469138 0)
(24.421505 -0.0022593606 0)
(24.595636 -0.00322398 0)
(24.873522 -0.0027730942 0)
(25.307764 -0.00098785793 0)
(25.999478 0.0015117573 0)
(26.975236 0.0033125232 0)
(27.932649 0.004249569 0)
(28.437255 0.0043147962 0)
(28.152472 0.00382069 0)
(26.966385 0.0031861562 0)
(25.044739 0.002529927 0)
(22.627062 0.0019279043 0)
(19.972513 0.00142343 0)
(17.286109 0.0010200971 0)
(14.705141 0.0007117426 0)
(12.313713 0.00048382928 0)
(10.153433 0.00032022628 0)
(8.2339246 0.00020558399 0)
(6.5473484 0.00012714985 0)
(5.0777018 7.489547e-05 0)
(3.8057723 4.1211145e-05 0)
(2.7116357 2.0430364e-05 0)
(1.7759086 8.4184128e-06 0)
(0.98036139 2.3980352e-06 0)
(0.30818669 5.5243072e-08 0)
(23.826685 0.00055305106 0)
(24.101396 0.0018224232 0)
(24.217441 0.0015915763 0)
(24.254451 0.00057635165 0)
(24.312798 -0.00068872327 0)
(24.417901 -0.0022430166 0)
(24.591248 -0.0032141792 0)
(24.868081 -0.0027804572 0)
(25.301316 -0.0010094643 0)
(25.992204 0.0014802515 0)
(26.967534 0.0032762563 0)
(27.924921 0.0042114846 0)
(28.429405 0.0042806334 0)
(28.14429 0.0037912392 0)
(26.958014 0.0031629235 0)
(25.03647 0.0025119104 0)
(22.6192 0.0019143821 0)
(19.965284 0.0014134749 0)
(17.279645 0.0010129511 0)
(14.699499 0.00070676073 0)
(12.308898 0.0004804666 0)
(10.149403 0.00031804596 0)
(8.2306178 0.00020423339 0)
(6.5446934 0.00012636788 0)
(5.075626 7.4492148e-05 0)
(3.8042062 4.102264e-05 0)
(2.7105139 2.036425e-05 0)
(1.7751709 8.4190592e-06 0)
(0.979953 2.4226408e-06 0)
(0.30805804 7.117969e-08 0)
(23.823816 0.0005548125 0)
(24.098385 0.0018233296 0)
(24.214414 0.0015998056 0)
(24.25137 0.00058945987 0)
(24.30957 -0.00067361453 0)
(24.414297 -0.0022271637 0)
(24.586868 -0.0032044042 0)
(24.862651 -0.0027874365 0)
(25.294876 -0.0010303425 0)
(25.984939 0.0014498644 0)
(26.959848 0.0032418439 0)
(27.917207 0.0041753515 0)
(28.421565 0.0042485906 0)
(28.136119 0.0037639095 0)
(26.949657 0.0031416908 0)
(25.028221 0.0024956786 0)
(22.611361 0.0019023229 0)
(19.95808 0.0014045903 0)
(17.273206 0.0010064752 0)
(14.693883 0.00070206927 0)
(12.304107 0.00047712329 0)
(10.145398 0.00031569735 0)
(8.2273337 0.00020263384 0)
(6.5420584 0.00012531073 0)
(5.0735672 7.3810955e-05 0)
(3.8026536 4.0627554e-05 0)
(2.7094022 2.0151323e-05 0)
(1.77444 8.3047495e-06 0)
(0.97954841 2.3574564e-06 0)
(0.30793058 4.7965441e-08 0)
(23.820944 0.00055609425 0)
(24.095369 0.0018230806 0)
(24.211383 0.0016067988 0)
(24.248286 0.0006015113 0)
(24.30634 -0.00065937113 0)
(24.410693 -0.0022118773 0)
(24.582497 -0.0031948759 0)
(24.857231 -0.0027942821 0)
(25.288444 -0.0010506272 0)
(25.977686 0.0014205332 0)
(26.952176 0.0032094688 0)
(27.909507 0.0041413118 0)
(28.413736 0.0042186338 0)
(28.127958 0.0037386944 0)
(26.941314 0.0031224674 0)
(25.019989 0.0024813777 0)
(22.603541 0.0018920736 0)
(19.950895 0.0013973974 0)
(17.266785 0.0010015381 0)
(14.688283 0.00069876508 0)
(12.299331 0.00047495639 0)
(10.141404 0.00031432417 0)
(8.2240596 0.00020179127 0)
(6.5394317 0.00012482484 0)
(5.0715151 7.3567081e-05 0)
(3.8011063 4.0506712e-05 0)
(2.7082944 2.0106654e-05 0)
(1.7737118 8.3132259e-06 0)
(0.97914537 2.3897194e-06 0)
(0.30780362 6.7811673e-08 0)
(23.818069 0.00055685853 0)
(24.092348 0.0018216613 0)
(24.208347 0.0016125304 0)
(24.245198 0.00061248532 0)
(24.303106 -0.00064590576 0)
(24.407091 -0.0021970634 0)
(24.578136 -0.0031853772 0)
(24.851823 -0.0028010045 0)
(25.282023 -0.0010706946 0)
(25.970444 0.0013918385 0)
(26.944521 0.0031784471 0)
(27.901821 0.0041087345 0)
(28.405918 0.0041902237 0)
(28.119807 0.0037151504 0)
(26.932983 0.003104873 0)
(25.011772 0.0024686184 0)
(22.595738 0.0018831892 0)
(19.943728 0.0013913432 0)
(17.260381 0.00099749193 0)
(14.6827 0.00069609067 0)
(12.29457 0.00047320304 0)
(10.137425 0.00031317008 0)
(8.2207978 0.00020103714 0)
(6.5368157 0.00012433526 0)
(5.0694721 7.3246501e-05 0)
(3.7995662 4.0324769e-05 0)
(2.707192 2.0007042e-05 0)
(1.7729873 8.2521878e-06 0)
(0.97874436 2.3526905e-06 0)
(0.3076773 5.3265743e-08 0)
(23.815189 0.00055708511 0)
(24.089321 0.0018190742 0)
(24.205305 0.0016170477 0)
(24.242105 0.0006224453 0)
(24.29987 -0.00063314955 0)
(24.40349 -0.0021826025 0)
(24.573786 -0.0031756273 0)
(24.846429 -0.00280729 0)
(25.275612 -0.0010908342 0)
(25.963216 0.0013627849 0)
(26.936882 0.0031476626 0)
(27.89415 0.0040764653 0)
(28.39811 0.0041622058 0)
(28.111665 0.0036920578 0)
(26.924664 0.0030875476 0)
(25.003569 0.0024559625 0)
(22.587951 0.001874281 0)
(19.936575 0.0013852065 0)
(17.25399 0.00099337589 0)
(14.677125 0.00069341345 0)
(12.289814 0.00047151249 0)
(10.133448 0.00031214627 0)
(8.2175367 0.00020043191 0)
(6.534199 0.00012399399 0)
(5.0674276 7.3072614e-05 0)
(3.7980244 4.0220912e-05 0)
(2.7060881 1.9955419e-05 0)
(1.7722616 8.2486798e-06 0)
(0.97834268 2.3757825e-06 0)
(0.30755075 6.8646036e-08 0)
(23.812306 0.00055677614 0)
(24.086288 0.0018153358 0)
(24.202258 0.0016203906 0)
(24.239009 0.00063146094 0)
(24.296631 -0.00062109003 0)
(24.399892 -0.0021686094 0)
(24.569448 -0.0031658903 0)
(24.841049 -0.0028132076 0)
(25.269215 -0.0011107629 0)
(25.956003 0.0013336571 0)
(26.929261 0.0031174459 0)
(27.886495 0.0040451242 0)
(28.390313 0.0041353499 0)
(28.103533 0.0036702343 0)
(26.916356 0.003071509 0)
(24.99538 0.0024445174 0)
(22.580179 0.001866446 0)
(19.929439 0.0013799374 0)
(17.247615 0.00098990337 0)
(14.671567 0.0006911353 0)
(12.285074 0.00047005869 0)
(10.129486 0.00031122629 0)
(8.214289 0.00019989101 0)
(6.531594 0.00012369685 0)
(5.0653928 7.291619e-05 0)
(3.7964904 4.0186911e-05 0)
(2.7049899 1.996526e-05 0)
(1.7715397 8.2404485e-06 0)
(0.97794307 2.3364936e-06 0)
(0.30742485 4.3833955e-08 0)
(23.809417 0.00055592373 0)
(24.083248 0.0018104966 0)
(24.199206 0.0016226185 0)
(24.235908 0.00063954107 0)
(24.293391 -0.00060973599 0)
(24.396297 -0.0021550983 0)
(24.565122 -0.0031562003 0)
(24.835685 -0.0028189952 0)
(25.262832 -0.0011306525 0)
(25.948805 0.0013047386 0)
(26.921659 0.0030878568 0)
(27.878856 0.0040143245 0)
(28.382528 0.0041091486 0)
(28.095411 0.0036489065 0)
(26.908059 0.0030558634 0)
(24.987205 0.0024333711 0)
(22.572421 0.0018588231 0)
(19.922316 0.0013748582 0)
(17.241251 0.00098660135 0)
(14.666017 0.00068904595 0)
(12.28034 0.00046874693 0)
(10.125527 0.00031042431 0)
(8.2110427 0.00019939153 0)
(6.5289893 0.0001233856 0)
(5.0633578 7.2734912e-05 0)
(3.7949559 4.0046713e-05 0)
(2.7038913 1.9875542e-05 0)
(1.7708175 8.2197014e-06 0)
(0.97754331 2.363781e-06 0)
(0.3072989 6.5322153e-08 0)
(23.806523 0.00055452443 0)
(24.080202 0.0018046236 0)
(24.196149 0.0016238261 0)
(24.232804 0.00064672575 0)
(24.290148 -0.00059901558 0)
(24.392705 -0.0021418713 0)
(24.560808 -0.0031465201 0)
(24.830337 -0.0028248054 0)
(25.256463 -0.0011506201 0)
(25.941624 0.0012760231 0)
(26.914075 0.0030589805 0)
(27.871233 0.003983904 0)
(28.374753 0.0040835677 0)
(28.087298 0.0036282757 0)
(26.899773 0.0030409613 0)
(24.979042 0.0024229857 0)
(22.564677 0.0018519422 0)
(19.915206 0.0013704649 0)
(17.2349 0.00098390935 0)
(14.660479 0.00068744651 0)
(12.275617 0.00046782565 0)
(10.121578 0.00030989964 0)
(8.2078052 0.0001991088 0)
(6.5263922 0.00012324219 0)
(5.0613291 7.265939e-05 0)
(3.7934263 4.0045263e-05 0)
(2.7027962 1.9891852e-05 0)
(1.7700977 8.2119492e-06 0)
(0.97714485 2.3398559e-06 0)
(0.30717336 5.0145494e-08 0)
(23.803624 0.00055260476 0)
(24.077149 0.0017977753 0)
(24.193087 0.0016240703 0)
(24.229695 0.00065310122 0)
(24.286903 -0.00058878233 0)
(24.389116 -0.0021288181 0)
(24.556508 -0.0031369929 0)
(24.825006 -0.0028307043 0)
(25.25011 -0.0011703811 0)
(25.934458 0.0012475142 0)