/*--------------------------------*- C++ -*----------------------------------*\
| =========                 |                                                 |
| \\      /  F ield         | OpenFOAM: The Open Source CFD Toolbox           |
|  \\    /   O peration     | Version:  v2012                                 |
|   \\  /    A nd           | Website:  www.openfoam.com                      |
|    \\/     M anipulation  |                                                 |
\*---------------------------------------------------------------------------*/
FoamFile
{
    version     2.0;
    format      ascii;
    class       volScalarField;
    location    "500";
    object      alphat;
}
// * * * * * * * * * * * * * * * * * * * * * * * * * * * * * * * * * * * * * //

dimensions      [1 -1 -1 0 0 0 0];


internalField   nonuniform List<scalar> 
24000
(
0.00078464942
0.00023855403
0.00015449928
9.7228599e-05
0.00010488503
0.00010573044
8.7635592e-05
6.8066625e-05
5.0348852e-05
3.8002525e-05
2.5446572e-05
1.1514075e-05
6.7684199e-06
4.2664732e-06
2.408125e-06
1.402843e-06
7.9951e-07
3.9779053e-07
1.5846191e-07
5.5035521e-08
1.7133767e-08
4.87482e-09
1.2723525e-09
3.0058188e-10
6.226814e-11
1.0737169e-11
1.4740116e-12
2.3775018e-13
1.5102501e-13
1.6042961e-13
0.00078514377
0.00023518595
0.00015193677
9.6578237e-05
0.00010470893
0.00010569187
8.7722264e-05
6.8104667e-05
5.039531e-05
3.8029793e-05
2.5440968e-05
1.1513237e-05
6.763613e-06
4.2568688e-06
2.4046339e-06
1.401759e-06
7.9922362e-07
3.976131e-07
1.5839309e-07
5.5010318e-08
1.7125892e-08
4.8728053e-09
1.2719338e-09
3.0051492e-10
6.2262741e-11
1.0739364e-11
1.4765552e-12
2.4031368e-13
1.5379723e-13
1.6331618e-13
0.00078570584
0.00023774175
0.0001550492
9.7807079e-05
0.00010462915
0.0001053367
8.741589e-05
6.7906509e-05
5.022117e-05
3.7865746e-05
2.5409412e-05
1.1499622e-05
6.7544867e-06
4.2478761e-06
2.4006092e-06
1.3998724e-06
7.9818338e-07
3.9728226e-07
1.5830125e-07
5.4990914e-08
1.712277e-08
4.872478e-09
1.2719489e-09
3.0053637e-10
6.2269635e-11
1.0740137e-11
1.4757486e-12
2.3918921e-13
1.5254217e-13
1.6200673e-13
0.00078631449
0.00023897519
0.00015616911
9.8287412e-05
0.0001045618
0.0001051552
8.729332e-05
6.7811948e-05
5.0126107e-05
3.7768361e-05
2.5367128e-05
1.1479693e-05
6.7434387e-06
4.2380094e-06
2.3957546e-06
1.3973325e-06
7.9668234e-07
3.9629125e-07
1.5785045e-07
5.4819471e-08
1.7066641e-08
4.8561652e-09
1.2676722e-09
2.9953013e-10
6.2063345e-11
1.0705551e-11
1.4717566e-12
2.3928487e-13
1.530042e-13
1.6248591e-13
0.00078696778
0.00024019659
0.00015709517
9.8571695e-05
0.00010449835
0.00010502004
8.7183072e-05
6.7713102e-05
5.0029864e-05
3.7672141e-05
2.5316729e-05
1.1455395e-05
6.7311472e-06
4.2271864e-06
2.390331e-06
1.3944913e-06
7.9506138e-07
3.9535968e-07
1.5746319e-07
5.4683269e-08
1.7024595e-08
4.8444375e-09
1.264685e-09
2.9884207e-10
6.1924162e-11
1.0682089e-11
1.4686217e-12
2.3880985e-13
1.5271649e-13
1.6218176e-13
0.00078766565
0.00024114282
0.00015774893
9.8787309e-05
0.00010443712
0.00010490304
8.7081167e-05
6.7618788e-05
4.9939998e-05
3.7581549e-05
2.5261415e-05
1.1428233e-05
6.717977e-06
4.2160503e-06
2.3846319e-06
1.3914215e-06
7.9326058e-07
3.9425042e-07
1.5698141e-07
5.4507176e-08
1.6968547e-08
4.8284387e-09
1.2605374e-09
2.9787316e-10
6.1726102e-11
1.0648566e-11
1.4643014e-12
2.3835567e-13
1.5255892e-13
1.6201277e-13
0.00078840812
0.00024192108
0.00015828119
9.8984825e-05
0.00010437737
0.00010479335
8.6983124e-05
6.7526692e-05
4.9853071e-05
3.7494228e-05
2.5203004e-05
1.1399307e-05
6.7042896e-06
4.2045827e-06
2.3787091e-06
1.3882046e-06
7.9137165e-07
3.9309363e-07
1.5648105e-07
5.4325036e-08
1.6910746e-08
4.8119696e-09
1.2562721e-09
2.9687717e-10
6.1522494e-11
1.0614051e-11
1.4597946e-12
2.3781872e-13
1.5231989e-13
1.6175809e-13
0.00078919552
0.00024257996
0.00015874443
9.9173086e-05
0.0001043188
0.0001046844
8.6887573e-05
6.7436452e-05
4.9767791e-05
3.7408749e-05
2.5142636e-05
1.136925e-05
6.6902667e-06
4.1929508e-06
2.3726601e-06
1.3848954e-06
7.8942074e-07
3.9188979e-07
1.5595825e-07
5.4134113e-08
1.6850008e-08
4.7946301e-09
1.2517745e-09
2.9582566e-10
6.1307312e-11
1.0577541e-11
1.4550249e-12
2.3725152e-13
1.5206845e-13
1.6149015e-13
0.00079002835
0.00024316493
0.00015917271
9.9358557e-05
0.00010426124
0.00010457564
8.6793385e-05
6.734744e-05
4.9683551e-05
3.7324495e-05
2.5081029e-05
1.1338475e-05
6.676035e-06
4.1812115e-06
2.3665288e-06
1.3815276e-06
7.8743252e-07
3.9066112e-07
1.5542436e-07
5.3939074e-08
1.6787939e-08
4.7769049e-09
1.2471753e-09
2.9475005e-10
6.1087125e-11
1.0540163e-11
1.4501315e-12
2.3665971e-13
1.5179885e-13
1.6120302e-13
0.0007909072
0.00024370546
0.00015958334
9.9544151e-05
0.0001042046
0.00010446699
8.6699973e-05
6.7259188e-05
4.9599957e-05
3.7240599e-05
2.5018638e-05
1.1307243e-05
6.6616699e-06
4.1694119e-06
2.3603475e-06
1.378122e-06
7.8541993e-07
3.8941558e-07
1.5488277e-07
5.3741111e-08
1.672491e-08
4.7588981e-09
1.2425013e-09
2.936566e-10
6.0863224e-11
1.0502143e-11
1.4451489e-12
2.3605287e-13
1.5151937e-13
1.6090542e-13
0.00079183275
0.0002442207
0.00015998587
9.973125e-05
0.00010414878
0.00010435855
8.6607105e-05
6.7171452e-05
4.9516815e-05
3.7157404e-05
2.4955764e-05
1.127572e-05
6.6472203e-06
4.1575781e-06
2.3541353e-06
1.3746927e-06
7.8339233e-07
3.881603e-07
1.543369e-07
5.3541571e-08
1.6661374e-08
4.7407441e-09
1.2377886e-09
2.9255397e-10
6.0637414e-11
1.0463791e-11
1.4401191e-12
2.3543656e-13
1.5123285e-13
1.6060037e-13
0.00079280567
0.00024472224
0.00016038536
9.9920546e-05
0.00010409376
0.0001042504
8.6514646e-05
6.708408e-05
4.9434019e-05
3.7074982e-05
2.4892599e-05
1.1244018e-05
6.6327169e-06
4.1457291e-06
2.3479047e-06
1.3712478e-06
7.8135501e-07
3.8689901e-07
1.5378845e-07
5.3341094e-08
1.6597536e-08
4.7225026e-09
1.2330527e-09
2.9144583e-10
6.0410456e-11
1.0425239e-11
1.4350602e-12
2.3481392e-13
1.5094139e-13
1.602901e-13
0.00079382661
0.00024521681
0.00016078436
0.00010011238
0.00010403948
0.0001041426
8.6422528e-05
6.6996967e-05
4.935151e-05
3.6992981e-05
2.4829266e-05
1.1212208e-05
6.6181796e-06
4.1338754e-06
2.341664e-06
1.3677933e-06
7.7931187e-07
3.8563455e-07
1.5323879e-07
5.3140216e-08
1.6533579e-08
4.7042278e-09
1.2283083e-09
2.9033568e-10
6.0183084e-11
1.0386615e-11
1.42999e-12
2.3418785e-13
1.5064687e-13
1.5997659e-13
0.00079489622
0.00024570829
0.00016118417
0.00010030687
0.00010398589
0.00010403514
8.6330684e-05
6.6910051e-05
4.926925e-05
3.6911272e-05
2.4765852e-05
1.1180336e-05
6.6036212e-06
4.1220238e-06
2.335418e-06
1.3643322e-06
7.7726476e-07
3.8436823e-07
1.5268846e-07
5.293913e-08
1.6469559e-08
4.685935e-09
1.223559e-09
2.8922435e-10
5.9955462e-11
1.0347946e-11
1.4249123e-12
2.3355933e-13
1.5035009e-13
1.596607e-13
0.00079601508
0.00024619892
0.00016158536
0.00010050401
0.00010393314
0.00010392802
8.6239082e-05
6.6823311e-05
4.9187217e-05
3.6829784e-05
2.4702418e-05
1.1148436e-05
6.589052e-06
4.1101787e-06
2.3291704e-06
1.3608673e-06
7.7521558e-07
3.8310152e-07
1.5213822e-07
5.2738138e-08
1.6405581e-08
4.667656e-09
1.2188135e-09
2.8811394e-10
5.9728034e-11
1.030931e-11
1.4198378e-12
2.3292993e-13
1.5005197e-13
1.5934342e-13
0.00079718372
0.00024668993
0.00016198821
0.00010070374
0.00010388055
0.00010382138
8.6147732e-05
6.6736734e-05
4.9105399e-05
3.67485e-05
2.463901e-05
1.1116531e-05
6.5744792e-06
4.098343e-06
2.3229236e-06
1.3573996e-06
7.7316493e-07
3.8183491e-07
1.5158826e-07
5.2537308e-08
1.6341665e-08
4.6493957e-09
1.214073e-09
2.870047e-10
5.9500841e-11
1.0270712e-11
1.4147673e-12
2.3229986e-13
1.4975269e-13
1.5902491e-13
0.00079840264
0.00024718188
0.00016239244
0.0001009062
0.00010382959
0.00010371497
8.6056503e-05
6.665028e-05
4.9023767e-05
3.6667382e-05
2.4575659e-05
1.1084639e-05
6.5599057e-06
4.0865195e-06
2.3166794e-06
1.3539306e-06
7.7111379e-07
3.8056906e-07
1.5103893e-07
5.2336789e-08
1.6277863e-08
4.6311708e-09
1.209342e-09
2.8589774e-10
5.9274125e-11
1.0232197e-11
1.409707e-12
2.3167031e-13
1.4945311e-13
1.5870609e-13
0.00079967225
0.00024767506
0.00016279802
0.00010111135
0.00010363806
0.00010360877
8.596537e-05
6.6563925e-05
4.8942306e-05
3.6586419e-05
2.4512392e-05
1.1052772e-05
6.5453335e-06
4.0747101e-06
2.3104383e-06
1.3504605e-06
7.690621e-07
3.7930394e-07
1.5049016e-07
5.2136532e-08
1.6214154e-08
4.612973e-09
1.2046181e-09
2.8479242e-10
5.9047741e-11
1.0193737e-11
1.4046535e-12
2.3104102e-13
1.4915325e-13
1.58387e-13
0.00080099291
0.00024816969
0.00016320484
0.00010131912
0.0001034296
0.00010350278
8.5874341e-05
6.6477678e-05
4.8861012e-05
3.6505618e-05
2.4449229e-05
1.1020941e-05
6.5307644e-06
4.0629146e-06
2.3042008e-06
1.34699e-06
7.6701061e-07
3.7804018e-07
1.499423e-07
5.1936692e-08
1.6150593e-08
4.5948203e-09
1.1999062e-09
2.8368997e-10
5.8821952e-11
1.0155379e-11
1.399613e-12
2.3041282e-13
1.4885352e-13
1.5806806e-13
0.00080236493
0.00024866574
0.00016361269
0.0001015295
0.00010322218
0.00010339701
8.5783395e-05
6.6391543e-05
4.8779882e-05
3.6424979e-05
2.4386184e-05
1.098915e-05
6.5161995e-06
4.0511334e-06
2.2979669e-06
1.3435192e-06
7.6495915e-07
3.7677771e-07
1.4939529e-07
5.173723e-08
1.6087165e-08
4.5767067e-09
1.1952046e-09
2.825899e-10
5.859665e-11
1.0117102e-11
1.3945827e-12
2.2978531e-13
1.485537e-13
1.5774904e-13
0.00080378854
0.00024916303
0.00016402148
0.00010174244
0.00010301586
0.00010329149
8.5692493e-05
6.630549e-05
4.8698922e-05
3.6344505e-05
2.4323275e-05
1.0957404e-05
6.5016394e-06
4.0393675e-06
2.2917374e-06
1.3400484e-06
7.6290822e-07
3.7551687e-07
1.4884933e-07
5.1538239e-08
1.6023903e-08
4.5586434e-09
1.1905164e-09
2.8149303e-10
5.8372008e-11
1.0078939e-11
1.389567e-12
2.2915934e-13
1.482544e-13
1.5743059e-13
0.00080526388
0.00024966129
0.00016443112
0.00010195793
0.00010281058
0.00010318622
8.5601621e-05
6.6219516e-05
4.8618135e-05
3.6264212e-05
2.4260494e-05
1.0925707e-05
6.4870841e-06
4.0276162e-06
2.2855116e-06
1.3365773e-06
7.608572e-07
3.742572e-07
1.4830415e-07
5.1339592e-08
1.596076e-08
4.5406146e-09
1.1858371e-09
2.8039821e-10
5.8147779e-11
1.0040845e-11
1.3845602e-12
2.2853425e-13
1.4795537e-13
1.5711245e-13
0.00080679106
0.00025016
0.00016484144
0.00010217594
0.00010260629
0.00010308122
8.5510799e-05
6.6133652e-05
4.8537526e-05
3.6184102e-05
2.419787e-05
1.0894059e-05
6.4725357e-06
4.0158795e-06
2.27929e-06
1.3331062e-06
7.5880656e-07
3.7299914e-07
1.4776001e-07
5.114141e-08
1.5897781e-08
4.5226351e-09
1.1811708e-09
2.7930648e-10
5.7924187e-11
1.0002859e-11
1.3795674e-12
2.2791066e-13
1.4765687e-13
1.5679489e-13
0.00080837008
0.00025065865
0.00016525224
0.00010239647
0.000102403
0.00010297651
8.542002e-05
6.6047887e-05
4.8457101e-05
3.6104177e-05
2.4135389e-05
1.0862461e-05
6.4579952e-06
4.004157e-06
2.273072e-06
1.3296348e-06
7.5675585e-07
3.7174239e-07
1.4721672e-07
5.0943609e-08
1.5834934e-08
4.5046945e-09
1.1765147e-09
2.7821709e-10
5.770107e-11
9.964953e-12
1.3745847e-12
2.2728796e-13
1.4735856e-13
1.5647754e-13
0.00081000088
0.00025115713
0.00016566341
0.00010261946
0.00010220075
0.00010287208
8.5329231e-05
6.5962201e-05
4.8376856e-05
3.6024437e-05
2.4073033e-05
1.0830913e-05
6.4434615e-06
3.9924495e-06
2.2668587e-06
1.3261634e-06
7.5470547e-07
3.704872e-07
1.4667446e-07
5.074627e-08
1.5772251e-08
4.486803e-09
1.1718716e-09
2.7713079e-10
5.7478587e-11
9.9271548e-12
1.3696161e-12
2.2666699e-13
1.4706103e-13
1.5616104e-13
0.00081168334
0.00025165534
0.00016607485
0.00010284487
0.0001019995
0.00010276797
8.5238416e-05
6.587659e-05
4.8296765e-05
3.5944869e-05
2.4010806e-05
1.0799413e-05
6.4289343e-06
3.9807584e-06
2.2606498e-06
1.3226914e-06
7.5265476e-07
3.6923308e-07
1.4613292e-07
5.0549247e-08
1.5709676e-08
4.4689429e-09
1.1672365e-09
2.7604629e-10
5.7256463e-11
9.8894161e-12
1.3646552e-12
2.2604698e-13
1.4676398e-13
1.5584507e-13
0.00081341723
0.000252153
0.00016648635
0.00010307266
0.00010179926
0.00010266416
8.5147584e-05
6.5791069e-05
4.8216833e-05
3.5865474e-05
2.3948711e-05
1.0767963e-05
6.4144137e-06
3.9690826e-06
2.2544455e-06
1.3192193e-06
7.5060428e-07
3.6798052e-07
1.4559239e-07
5.0352678e-08
1.5647261e-08
4.4511303e-09
1.162614e-09
2.7496474e-10
5.7034942e-11
9.8517796e-12
1.3597077e-12
2.2542859e-13
1.4646768e-13
1.555299e-13
0.00081520227
0.00025264991
0.00016689771
0.00010330276
0.0001016001
0.00010256047
8.5056755e-05
6.57057e-05
4.8137073e-05
3.5786258e-05
2.3886753e-05
1.0736561e-05
6.3998994e-06
3.9574221e-06
2.2482452e-06
1.3157467e-06
7.485536e-07
3.6672926e-07
1.450527e-07
5.015648e-08
1.5584973e-08
4.4333547e-09
1.1580009e-09
2.7388535e-10
5.6813852e-11
9.8142142e-12
1.3547691e-12
2.2481112e-13
1.4617169e-13
1.5521508e-13
0.00081703809
0.00025314613
0.000167309
0.00010353511
0.00010140207
0.00010245679
8.4965972e-05
6.5620457e-05
4.8057479e-05
3.5707224e-05
2.3824932e-05
1.0705207e-05
6.3853916e-06
3.9457783e-06
2.2420495e-06
1.3122742e-06
7.4650315e-07
3.6547953e-07
1.4451401e-07
4.9960732e-08
1.5522843e-08
4.4156264e-09
1.1534002e-09
2.7280887e-10
5.6593354e-11
9.7767487e-12
1.3498436e-12
2.2419533e-13
1.4587656e-13
1.5490119e-13
0.00081892425
0.00025364176
0.00016772021
0.00010376969
0.00010120518
0.00010235307
8.4875261e-05
6.5535357e-05
4.7978049e-05
3.5628375e-05
2.376325e-05
1.0673896e-05
6.3708899e-06
3.9341505e-06
2.2358578e-06
1.308801e-06
7.4445219e-07
3.6423078e-07
1.4397599e-07
4.9765273e-08
1.5460812e-08
4.3979257e-09
1.1488065e-09
2.7173391e-10
5.6373149e-11
9.7393306e-12
1.3449242e-12
2.2358041e-13
1.4558194e-13
1.5458786e-13
0.00082086021
0.00025413668
0.0001681311
0.00010400645
0.00010100938
0.00010224924
8.4784726e-05
6.5450446e-05
4.7898793e-05
3.5549724e-05
2.3701708e-05
1.0642627e-05
6.3563963e-06
3.9225389e-06
2.2296705e-06
1.3053275e-06
7.424013e-07
3.6298349e-07
1.4343891e-07
4.9570242e-08
1.539893e-08
4.3802693e-09
1.1442242e-09
2.7066163e-10
5.6153487e-11
9.7020034e-12
1.3400166e-12
2.22967e-13
1.4528809e-13
1.5427536e-13
0.00082284538
0.00025463069
0.00016854148
0.00010424529
0.00010081464
0.00010214526
8.4694372e-05
6.5365732e-05
4.7819725e-05
3.5471275e-05
2.3640308e-05
1.0611398e-05
6.3419119e-06
3.9109435e-06
2.2234873e-06
1.3018534e-06
7.4035e-07
3.6173732e-07
1.4290259e-07
4.9375542e-08
1.533716e-08
4.3626452e-09
1.1396501e-09
2.6959116e-10
5.5934179e-11
9.6647333e-12
1.335116e-12
2.2235433e-13
1.449945e-13
1.5396315e-13
0.00082487907
0.00025512344
0.00016895136
0.00010448619
0.00010062099
0.00010204113
8.4604172e-05
6.5281205e-05
4.7740832e-05
3.5393029e-05
2.3579052e-05
1.0580206e-05
6.327436e-06
3.8993657e-06
2.217309e-06
1.2983793e-06
7.3829878e-07
3.6049252e-07
1.4236718e-07
4.9181257e-08
1.5275537e-08
4.3450645e-09
1.1350873e-09
2.6852333e-10
5.5715402e-11
9.6275523e-12
1.3302272e-12
2.2174329e-13
1.4470184e-13
1.5365193e-13
0.00082696052
0.0002556144
0.00016936065
0.00010472918
0.00010042847
0.00010193687
8.4514102e-05
6.5196841e-05
4.7662084e-05
3.5314966e-05
2.351794e-05
1.0549045e-05
6.3129688e-06
3.8878064e-06
2.2111353e-06
1.2949044e-06
7.3624689e-07
3.5924852e-07
1.4183234e-07
4.8987219e-08
1.5213996e-08
4.3275062e-09
1.13053e-09
2.6745663e-10
5.5496834e-11
9.5904032e-12
1.3253423e-12
2.2113299e-13
1.4440973e-13
1.5334132e-13
0.00082908887
0.0002561032
0.00016976909
0.00010497419
0.00010023705
0.00010183243
8.4424181e-05
6.5112653e-05
4.7583487e-05
3.523709e-05
2.3456976e-05
1.0517913e-05
6.2985113e-06
3.8762664e-06
2.2049673e-06
1.2914298e-06
7.3419514e-07
3.5800596e-07
1.4129843e-07
4.8793595e-08
1.5152598e-08
4.3099904e-09
1.1259836e-09
2.6639246e-10
5.5278772e-11
9.5533383e-12
1.3204685e-12
2.2052419e-13
1.4411846e-13
1.5303161e-13
0.00083126321
0.00025658973
0.00017017654
0.00010522112
0.00010004666
0.00010172782
8.4334417e-05
6.5028639e-05
4.7505054e-05
3.5159409e-05
2.339616e-05
1.0486804e-05
6.2840642e-06
3.8647453e-06
2.1988047e-06
1.2879549e-06
7.3214305e-07
3.5676455e-07
1.4076525e-07
4.8600289e-08
1.5091307e-08
4.2925042e-09
1.1214444e-09
2.6532987e-10
5.5061008e-11
9.51632e-12
1.3156002e-12
2.1991599e-13
1.4382744e-13
1.5272217e-13
0.00083348255
0.00025707389
0.00017058299
0.00010546991
9.9857345e-05
0.00010162303
8.4244782e-05
6.4944787e-05
4.7426776e-05
3.5081921e-05
2.3335496e-05
1.0455714e-05
6.2696288e-06
3.8532453e-06
2.1926486e-06
1.2844806e-06
7.3009134e-07
3.5552465e-07
1.4023303e-07
4.8407409e-08
1.5030164e-08
4.2750617e-09
1.1169166e-09
2.6426988e-10
5.4843764e-11
9.4793877e-12
1.3107431e-12
2.193094e-13
1.4353737e-13
1.5241378e-13
0.00083574581
0.0002575555
0.00017098834
0.00010572052
9.9669132e-05
0.00010151807
8.4155267e-05
6.4861104e-05
4.7348648e-05
3.5004632e-05
2.3274982e-05
1.0424636e-05
6.255206e-06
3.8417664e-06
2.1864983e-06
1.281006e-06
7.2803915e-07
3.5428563e-07
1.3970138e-07
4.8214765e-08
1.4969097e-08
4.2576389e-09
1.1123932e-09
2.6321076e-10
5.4626669e-11
9.4424762e-12
1.3058885e-12
2.1870338e-13
1.4324781e-13
1.5210593e-13
0.00083805187
0.00025803439
0.00017139234
0.00010597289
9.9481955e-05
0.00010141292
8.4065894e-05
6.4777595e-05
4.7270684e-05
3.4927554e-05
2.3214623e-05
1.0393564e-05
6.240799e-06
3.8303089e-06
2.1803544e-06
1.2775322e-06
7.2598736e-07
3.5304816e-07
1.3917069e-07
4.8022541e-08
1.4908173e-08
4.2402581e-09
1.1078807e-09
2.6215411e-10
5.4410062e-11
9.4056449e-12
1.3010442e-12
2.180988e-13
1.4295907e-13
1.5179897e-13
0.00084039949
0.00025851054
0.0001717949
0.00010622692
9.9295773e-05
0.00010130756
8.3976661e-05
6.4694263e-05
4.7192889e-05
3.4850688e-05
2.315442e-05
1.0362492e-05
6.2264105e-06
3.8188728e-06
2.1742168e-06
1.2740586e-06
7.2393541e-07
3.5181187e-07
1.3864073e-07
4.7830624e-08
1.484735e-08
4.2229049e-09
1.1033747e-09
2.6109886e-10
5.419371e-11
9.3688519e-12
1.2962043e-12
2.1749463e-13
1.4267048e-13
1.5149218e-13
0.00084278741
0.00025898406
0.00017219599
0.00010648254
9.9110588e-05
0.00010120199
8.3887537e-05
6.4611083e-05
4.7115238e-05
3.4774035e-05
2.3094375e-05
1.0331411e-05
6.212042e-06
3.8074599e-06
2.1680865e-06
1.2705863e-06
7.2188413e-07
3.5057717e-07
1.3811174e-07
4.7639134e-08
1.4786675e-08
4.205595e-09
1.0988799e-09
2.6004616e-10
5.3977866e-11
9.3321427e-12
1.2913753e-12
2.1689208e-13
1.4238287e-13
1.5118646e-13
0.00084521427
0.00025945488
0.00017259546
0.00010673973
9.8926421e-05
0.00010109619
8.3798498e-05
6.4528056e-05
4.7037713e-05
3.4697579e-05
2.303449e-05
1.0300316e-05
6.1976953e-06
3.7960701e-06
2.1619632e-06
1.2671143e-06
7.1983266e-07
3.4934341e-07
1.3758332e-07
4.744787e-08
1.4726069e-08
4.1883027e-09
1.0943889e-09
2.5899415e-10
5.3762126e-11
9.2954458e-12
1.2865475e-12
2.1629001e-13
1.4209578e-13
1.5088129e-13
0.00084767866
0.00025992265
0.00017299305
0.0001069984
9.8743197e-05
0.00010099013
8.3709563e-05
6.444518e-05
4.6960323e-05
3.4621323e-05
2.2974773e-05
1.0269205e-05
6.183373e-06
3.784705e-06
2.1558477e-06
1.263644e-06
7.1778205e-07
3.4811141e-07
1.3705593e-07
4.7257049e-08
1.4665615e-08
4.171054e-09
1.089909e-09
2.5794467e-10
5.3546886e-11
9.2588303e-12
1.2817302e-12
2.1568941e-13
1.4180955e-13
1.5057705e-13
0.00085017912
0.00026038682
0.00017338866
0.0001072585
9.8560937e-05
0.00010088381
8.3620734e-05
6.4362453e-05
4.688307e-05
3.4545209e-05
2.2915196e-05
1.023819e-05
6.1690774e-06
3.7733637e-06
2.1497401e-06
1.2601748e-06
7.1573179e-07
3.4688084e-07
1.3652935e-07
4.7066557e-08
1.4605266e-08
4.153834e-09
1.0854359e-09
2.5689661e-10
5.3331898e-11
9.2222521e-12
1.2769171e-12
2.1508919e-13
1.4152345e-13
1.5027297e-13
0.0008527141
0.00026084694
0.00017378229
0.00010751999
9.8379913e-05
0.00010077722
8.3531976e-05
6.427986e-05
4.6805941e-05
3.446923e-05
2.2855759e-05
1.020727e-05
6.1548086e-06
3.7620482e-06
2.1436417e-06
1.2567079e-06
7.1368277e-07
3.4565217e-07
1.3600386e-07
4.687653e-08
1.4545075e-08
4.13666e-09
1.0809747e-09
2.5585123e-10
5.3117443e-11
9.185761e-12
1.2721151e-12
2.1449059e-13
1.4123834e-13
1.4996994e-13
0.00085528204
0.00026130279
0.00017417384
0.00010778284
9.8199815e-05
0.00010067037
8.3443286e-05
6.4197403e-05
4.6728939e-05
3.4393386e-05
2.2796456e-05
1.0176443e-05
6.1405667e-06
3.7507584e-06
2.1375519e-06
1.2532424e-06
7.1163413e-07
3.4442471e-07
1.3547903e-07
4.6686758e-08
1.4484962e-08
4.1195055e-09
1.0765176e-09
2.5480662e-10
5.2903103e-11
9.1492834e-12
1.2673145e-12
2.1389244e-13
1.4095369e-13
1.4966742e-13
0.00085788128
0.00026175427
0.00017456307
0.00010804697
9.8020589e-05
0.00010056322
8.3354684e-05
6.4115093e-05
4.6652075e-05
3.4317685e-05
2.2737286e-05
1.0145709e-05
6.1263535e-06
3.7394947e-06
2.1314718e-06
1.2497796e-06
7.0958694e-07
3.4319928e-07
1.3495534e-07
4.6497459e-08
1.4425007e-08
4.1023967e-09
1.0720721e-09
2.5376463e-10
5.2689279e-11
9.1128899e-12
1.2625246e-12
2.1329573e-13
1.4066986e-13
1.4936579e-13
0.00086051015
0.00026220124
0.00017494993
0.00010831229
9.7842217e-05
0.00010045575
8.3266151e-05
6.4032919e-05
4.6575342e-05
3.4242125e-05
2.2678246e-05
1.0115067e-05
6.11217e-06
3.7282569e-06
2.1254009e-06
1.2463189e-06
7.0754067e-07
3.4197552e-07
1.3443254e-07
4.6308515e-08
1.4365166e-08
4.0853184e-09
1.0676338e-09
2.5272416e-10
5.2475727e-11
9.0765364e-12
1.2577391e-12
2.1269939e-13
1.4038612e-13
1.4906427e-13
0.00086316693
0.00026264356
0.00017533438
0.00010857876
9.7664727e-05
0.00010034798
8.3177661e-05
6.3950866e-05
4.6498718e-05
3.4166695e-05
2.2619334e-05
1.0084518e-05
6.0980161e-06
3.7170468e-06
2.1193407e-06
1.2428616e-06
7.0549629e-07
3.4075392e-07
1.3391092e-07
4.6120063e-08
1.4305491e-08
4.0682883e-09
1.0632079e-09
2.5168648e-10
5.2262729e-11
9.0402735e-12
1.2529652e-12
2.1210471e-13
1.4010336e-13
1.4876381e-13
0.00086584986
0.00026308106
0.00017571626
0.00010884632
9.7488057e-05
0.00010023986
8.3089203e-05
6.3868921e-05
4.6422197e-05
3.4091381e-05
2.2560545e-05
1.005406e-05
6.0838915e-06
3.705864e-06
2.1132905e-06
1.2394067e-06
7.0345291e-07
3.395338e-07
1.3339005e-07
4.5931897e-08
1.4245902e-08
4.0512799e-09
1.0587867e-09
2.506497e-10
5.2049871e-11
9.0040279e-12
1.2481931e-12
2.1151052e-13
1.3982111e-13
1.4846388e-13
0.00086855714
0.00026351369
0.00017609539
0.00010911489
9.7312167e-05
0.00010013137
8.300078e-05
6.3787087e-05
4.6345782e-05
3.4016187e-05
2.2501878e-05
1.0023693e-05
6.0697969e-06
3.6947095e-06
2.1072516e-06
1.2359557e-06
7.014117e-07
3.3831606e-07
1.3287046e-07
4.5744248e-08
1.4186485e-08
4.0343208e-09
1.0543781e-09
2.4961576e-10
5.1837572e-11
8.9678734e-12
1.2434325e-12
2.1091785e-13
1.3953967e-13
1.4816486e-13
0.00087128693
0.00026394156
0.00017647167
0.00010938437
9.7137025e-05
0.00010002251
8.2912377e-05
6.3705353e-05
4.6269468e-05
3.3941112e-05
2.2443329e-05
9.9934156e-06
6.0557323e-06
3.6835836e-06
2.1012235e-06
1.2325081e-06
6.9937217e-07
3.3710038e-07
1.323519e-07
4.5557004e-08
1.4127196e-08
4.0173964e-09
1.0499777e-09
2.4858356e-10
5.1625591e-11
8.9317664e-12
1.2386773e-12
2.1032561e-13
1.3925834e-13
1.4786595e-13
0.00087403741
0.00026436462
0.00017684501
0.00010965471
9.6962635e-05
9.9913269e-05
8.2823976e-05
6.3623715e-05
4.6193249e-05
3.3866151e-05
2.2384896e-05
9.963228e-06
6.0416978e-06
3.6724876e-06
2.0952078e-06
1.2290651e-06
6.9733528e-07
3.3588724e-07
1.3183469e-07
4.5370306e-08
1.4068089e-08
4.0005245e-09
1.0455908e-09
2.4755442e-10
5.1414215e-11
8.8957587e-12
1.2339348e-12
2.0973509e-13
1.3897796e-13
1.4756807e-13
0.00087680669
0.00026478258
0.00017721521
0.00010992586
9.6788931e-05
9.9803618e-05
8.2735583e-05
6.3542166e-05
4.6117131e-05
3.3791306e-05
2.2326573e-05
9.9331276e-06
6.0276931e-06
3.6614217e-06
2.0892039e-06
1.2256258e-06
6.9530016e-07
3.3467598e-07
1.3131839e-07
4.518395e-08
1.4009087e-08
3.9836796e-09
1.04121e-09
2.4652651e-10
5.1203049e-11
8.8597801e-12
1.2291954e-12
2.0914513e-13
1.3869803e-13
1.4727067e-13
0.00087959291
0.00026519493
0.00017758212
0.00011019776
9.6615906e-05
9.9693545e-05
8.2647192e-05
6.346071e-05
4.6041111e-05
3.3716576e-05
2.2268358e-05
9.9031139e-06
6.0137194e-06
3.6503861e-06
2.0832129e-06
1.2221913e-06
6.9326788e-07
3.3346744e-07
1.3080349e-07
4.4998155e-08
1.395027e-08
3.9668878e-09
1.0368428e-09
2.4550167e-10
5.0992491e-11
8.8239009e-12
1.2244687e-12
2.0855672e-13
1.3841887e-13
1.4697411e-13
0.00088239415
0.00026560118
0.00017794583
0.00011047042
9.6443576e-05
9.9583031e-05
8.2558774e-05
6.3379338e-05
4.5965177e-05
3.364196e-05
2.2210248e-05
9.8731855e-06
5.9997777e-06
3.6393807e-06
2.0772345e-06
1.2187614e-06
6.9123796e-07
3.3226126e-07
1.3028976e-07
4.481281e-08
1.3891596e-08
3.950135e-09
1.0324849e-09
2.4447886e-10
5.078231e-11
8.7880798e-12
1.2197486e-12
2.0796884e-13
1.381398e-13
1.4667766e-13
0.00088520854
0.00026600118
0.00017830632
0.00011074379
9.6271894e-05
9.9472061e-05
8.2470319e-05
6.3298033e-05
4.5889315e-05
3.3567441e-05
2.215224e-05
9.8433413e-06
5.9858681e-06
3.6284069e-06
2.07127e-06
1.2153372e-06
6.8921132e-07
3.3105792e-07
1.2977748e-07
4.4628047e-08
1.3833114e-08
3.9334378e-09
1.0281414e-09
2.434593e-10
5.0572776e-11
8.7523646e-12
1.215042e-12
2.0738272e-13
1.3786168e-13
1.4638222e-13
0.00088803418
0.00026639493
0.00017866341
0.00011101778
9.6100818e-05
9.9360609e-05
8.2381829e-05
6.3216787e-05
4.5813518e-05
3.3493009e-05
2.2094328e-05
9.8135796e-06
5.97199e-06
3.6174643e-06
2.0653188e-06
1.2119178e-06
6.8718715e-07
3.2985682e-07
1.2926626e-07
4.4443679e-08
1.3774754e-08
3.9167725e-09
1.0238052e-09
2.4244128e-10
5.0363517e-11
8.71669e-12
1.2103402e-12
2.0679732e-13
1.3758404e-13
1.4608732e-13
0.00089086917
0.00026678231
0.00017901689
0.00011129236
9.5930369e-05
9.9248666e-05
8.229329e-05
6.313559e-05
4.5737783e-05
3.3418666e-05
2.2036512e-05
9.7838999e-06
5.9581436e-06
3.6065532e-06
2.0593819e-06
1.2085044e-06
6.8516651e-07
3.2865879e-07
1.2875657e-07
4.4259918e-08
1.3716593e-08
3.9001643e-09
1.0194837e-09
2.4142658e-10
5.0154918e-11
8.6811236e-12
1.205652e-12
2.0621354e-13
1.3730717e-13
1.4579323e-13
0.00089371165
0.00026716313
0.00017936669
0.00011156746
9.5760539e-05
9.9136229e-05
8.220469e-05
6.305445e-05
4.5662111e-05
3.3344411e-05
2.1978786e-05
9.7543012e-06
5.9443287e-06
3.5956739e-06
2.0534588e-06
1.2050966e-06
6.8314894e-07
3.274635e-07
1.2824821e-07
4.4076658e-08
1.365859e-08
3.8835996e-09
1.0151728e-09
2.4041421e-10
4.9946758e-11
8.6456259e-12
1.2009719e-12
2.056304e-13
1.3703039e-13
1.4549927e-13
0.00089655974
0.00026753726
0.0001797128
0.00011184301
9.5591283e-05
9.9023266e-05
8.2116019e-05
6.2973351e-05
4.5586503e-05
3.3270239e-05
2.1921147e-05
9.7247818e-06
5.9305452e-06
3.5848281e-06
2.0475509e-06
1.2016954e-06
6.8113526e-07
3.2627138e-07
1.2774142e-07
4.3894022e-08
1.3600794e-08
3.8670942e-09
1.0108771e-09
2.3940532e-10
4.9739294e-11
8.6102431e-12
1.1963064e-12
2.0504907e-13
1.3675451e-13
1.4520627e-13
0.00089941163
0.00026790465
0.00018005516
0.00011211897
9.5422573e-05
9.8909754e-05
8.2027267e-05
6.2892292e-05
4.5510945e-05
3.3196147e-05
2.1863591e-05
9.6953394e-06
5.9167926e-06
3.5740151e-06
2.0416574e-06
1.1983001e-06
6.7912472e-07
3.2508184e-07
1.2723584e-07
4.3711835e-08
1.3543136e-08
3.850626e-09
1.0065904e-09
2.3839833e-10
4.9532183e-11
8.5749144e-12
1.1916474e-12
2.0446855e-13
1.3647907e-13
1.4491376e-13
0.00090226549
0.00026826539
0.00018039368
0.00011239527
9.5254387e-05
9.8795697e-05
8.1938428e-05
6.2811268e-05
4.5435436e-05
3.3122132e-05
2.1806114e-05
9.6659735e-06
5.9030715e-06
3.5632355e-06
2.0357793e-06
1.1949117e-06
6.771183e-07
3.2389563e-07
1.2673189e-07
4.353029e-08
1.3485689e-08
3.8342183e-09
1.0023191e-09
2.373949e-10
4.9325781e-11
8.5397027e-12
1.1870032e-12
2.0388971e-13
1.3620436e-13
1.4462204e-13
0.00090511956
0.00026861958
0.00018072821
0.00011267183
9.5086743e-05
9.8681075e-05
8.1849486e-05
6.2730268e-05
4.5359968e-05
3.304819e-05
2.1748712e-05
9.6366835e-06
5.8893822e-06
3.552489e-06
2.0299163e-06
1.1915297e-06
6.7511552e-07
3.2271243e-07
1.2622938e-07
4.3349286e-08
1.3428414e-08
3.817858e-09
9.9805956e-10
2.3639405e-10
4.9119879e-11
8.5045703e-12
1.1823684e-12
2.0331162e-13
1.3592974e-13
1.4433042e-13
0.0009079721
0.00026896715
0.00018105864
0.00011294855
9.4919568e-05
9.8565856e-05
8.1760432e-05
6.2649277e-05
4.5284527e-05
3.2974307e-05
2.1691384e-05
9.6074683e-06
5.8757253e-06
3.5417768e-06
2.0240696e-06
1.1881553e-06
6.7311722e-07
3.2153265e-07
1.2572854e-07
4.316894e-08
1.3371355e-08
3.8015601e-09
9.9381612e-10
2.3539691e-10
4.8914718e-11
8.4695608e-12
1.1777493e-12
2.0273542e-13
1.3565603e-13
1.4403977e-13
0.00091082143
0.00026930771
0.00018138495
0.00011322543
9.4752869e-05
9.8450024e-05
8.1671261e-05
6.2568295e-05
4.5209106e-05
3.2900477e-05
2.1634124e-05
9.5783253e-06
5.8621e-06
3.5310981e-06
2.0182385e-06
1.1847876e-06
6.7112256e-07
3.203557e-07
1.2522899e-07
4.2989071e-08
1.3314444e-08
3.7853021e-09
9.8958233e-10
2.3440186e-10
4.8709949e-11
8.4346126e-12
1.1731377e-12
2.0216013e-13
1.3538278e-13
1.4374963e-13
0.00091366589
0.00026964071
0.00018170709
0.00011350248
9.4586668e-05
9.8333572e-05
8.1581958e-05
6.2487318e-05
4.5133712e-05
3.28267e-05
2.1576931e-05
9.5492536e-06
5.8485061e-06
3.520453e-06
2.0124237e-06
1.1814275e-06
6.6913253e-07
3.1918233e-07
1.2473119e-07
4.2809882e-08
1.3257755e-08
3.7691081e-09
9.85365e-10
2.3341059e-10
4.8505941e-11
8.3997905e-12
1.168542e-12
2.0158663e-13
1.3511027e-13
1.434603e-13
0.00091650391
0.00026996575
0.00018202494
0.00011377959
9.4420983e-05
9.8216496e-05
8.1492516e-05
6.2406339e-05
4.5058345e-05
3.2752978e-05
2.1519799e-05
9.5202511e-06
5.8349432e-06
3.5098412e-06
2.0066248e-06
1.1780745e-06
6.6714661e-07
3.180122e-07
1.2423491e-07
4.2631265e-08
1.3201248e-08
3.7529645e-09
9.8116019e-10
2.3242211e-10
4.8302475e-11
8.3650552e-12
1.1639567e-12
2.010139e-13
1.348378e-13
1.4317102e-13
0.00091933393
0.00027028282
0.00018233842
0.00011405653
9.4255746e-05
9.8098783e-05
8.1402941e-05
6.2325364e-05
4.4982995e-05
3.2679306e-05
2.1462726e-05
9.4913169e-06
5.821411e-06
3.4992641e-06
2.000843e-06
1.1747299e-06
6.6516569e-07
3.1684578e-07
1.2374042e-07
4.2453351e-08
1.3144972e-08
3.7368877e-09
9.7697273e-10
2.3143765e-10
4.809982e-11
8.3304553e-12
1.1593888e-12
2.0044322e-13
1.3456626e-13
1.4288273e-13
0.0009221545
0.00027059202
0.00018264746
0.00011433295
9.4091001e-05
9.7980415e-05
8.1313221e-05
6.2244386e-05
4.4907658e-05
3.2605675e-05
2.1405709e-05
9.4624489e-06
5.807909e-06
3.4887215e-06
1.9950773e-06
1.1713925e-06
6.6318886e-07
3.1568242e-07
1.2324733e-07
4.2275949e-08
1.3088855e-08
3.7208542e-09
9.7279582e-10
2.304555e-10
4.7897606e-11
8.2959254e-12
1.1548295e-12
1.9987349e-13