/*--------------------------------*- C++ -*----------------------------------*\
| =========                 |                                                 |
| \\      /  F ield         | OpenFOAM: The Open Source CFD Toolbox           |
|  \\    /   O peration     | Version:  v2012                                 |
|   \\  /    A nd           | Website:  www.openfoam.com                      |
|    \\/     M anipulation  |                                                 |
\*---------------------------------------------------------------------------*/
FoamFile
{
    version     2.0;
    format      ascii;
    class       volScalarField;
    location    "500";
    object      k;
}
// * * * * * * * * * * * * * * * * * * * * * * * * * * * * * * * * * * * * * //

dimensions      [0 2 -2 0 0 0 0];


internalField   nonuniform List<scalar> 
24000
(
0.10082791
0.11691793
0.13853362
0.19290803
0.47215296
1.2480371
2.246131
2.9987378
3.0977128
2.5317839
1.6944222
1.353925
1.8488139
2.3857078
2.3732329
1.9699087
1.4121558
0.87879141
0.48291646
0.24428785
0.11681653
0.053363282
0.023237918
0.0095313687
0.0036028594
0.0012155647
0.00036294211
0.00015123761
0.00033680272
0.0024142773
0.10085215
0.11691519
0.13844999
0.19232774
0.46844841
1.2390794
2.2341123
2.9863149
3.0881593
2.5260509
1.6910852
1.3505277
1.8426964
2.3776349
2.3665147
1.9652626
1.4093252
0.87722389
0.48214918
0.24394713
0.11667613
0.053308555
0.023217607
0.0095242974
0.0036006872
0.0012151723
0.00036336805
0.00015277724
0.0003427513
0.0024566328
0.10088471
0.11691774
0.13837763
0.1918349
0.46557787
1.2325873
2.2256743
2.9770329
3.0806586
2.5206113
1.6872352
1.3473727
1.8376472
2.3703864
2.3598259
1.9604756
1.406443
0.87581309
0.48156373
0.24372839
0.11659922
0.053282821
0.023209527
0.0095219773
0.0036000714
0.0012149476
0.00036308433
0.00015203081
0.00033989876
0.0024362704
0.10091759
0.11692186
0.13831206
0.19136288
0.46285314
1.2261499
2.2168955
2.9675611
3.0726776
2.5145149
1.6827052
1.3438553
1.8330054
2.3636111
2.3531372
1.9550169
1.4024693
0.87318331
0.48004658
0.24293569
0.1162132
0.053104961
0.023131876
0.0094901785
0.003588132
0.0012110157
0.00036209146
0.00015208433
0.0003409012
0.0024434837
0.10095103
0.11692697
0.13824851
0.19089853
0.46018154
1.2197897
2.2081267
2.9582669
3.0646405
2.5081279
1.6777349
1.3401899
1.8287217
2.3572071
2.3465287
1.9494843
1.3984712
0.87066533
0.47868792
0.24227193
0.11590822
0.05297089
0.023075474
0.009467735
0.0035798676
0.001208292
0.0003612998
0.00015177386
0.0003402408
0.0024387784
0.10098519
0.11693327
0.13818734
0.19044195
0.45754913
1.2134906
2.1993875
2.9490489
3.0565395
2.5015497
1.6724946
1.3364037
1.8246631
2.3510612
2.339962
1.94379
1.3941947
0.86784025
0.47709162
0.2414594
0.11552187
0.05279631
0.023000399
0.0094373347
0.0035685266
0.0012045332
0.00036024524
0.00015148777
0.00033989192
0.0024363175
0.10102025
0.11694065
0.13812805
0.18999189
0.45494483
1.2072353
2.1906884
2.939888
3.0484125
2.4948621
1.6670879
1.3325544
1.8207597
2.3450865
2.3334351
1.9380317
1.3898206
0.8649337
0.47544671
0.24062282
0.11512476
0.052617175
0.022923476
0.0094062177
0.0035569235
0.0012006832
0.00035915149
0.00015115206
0.00033936905
0.0024326072
0.1010563
0.11694905
0.13807043
0.18954777
0.45236365
1.2010029
2.1820465
2.9307702
3.040277
2.4881121
1.6615806
1.3286658
1.8169601
2.3392297
2.3269388
1.932228
1.3853668
0.86194752
0.47374523
0.23975312
0.11471041
0.052429762
0.022842837
0.0093735469
0.0035447262
0.0011966321
0.00035800023
0.00015080009
0.00033882494
0.0024287465
0.10109341
0.11695838
0.1380143
0.18910904
0.44980251
1.1947935
2.173449
2.9216876
3.0321435
2.4813281
1.6560135
1.3247556
1.8132314
2.333454
2.320468
1.926402
1.3808708
0.85892067
0.4720161
0.23886787
0.11428824
0.052238687
0.022760584
0.009340211
0.0035322766
0.0011924954
0.00035682228
0.00015043409
0.00033824408
0.0024246224
0.10113161
0.1169686
0.13795956
0.18867532
0.44725961
1.1886074
2.164887
2.9126346
3.0240178
2.4745276
1.6504125
1.3208342
1.8095519
2.3277357
2.3140181
1.9205644
1.3763488
0.85586739
0.47026833
0.23797182
0.1138605
0.052044955
0.022677147
0.0093063814
0.0035196386
0.0011882946
0.00035562498
0.00015005963
0.00033764372
0.0024203585
0.10117092
0.11697967
0.13790614
0.18824626
0.44473354
1.1824444
2.1563548
2.9036074
3.015903
2.4677207
1.6447948
1.3169084
1.8059072
2.3220581
2.3075856
1.9147231
1.3718133
0.85280007
0.46851067
0.23707007
0.11342984
0.051849846
0.022593098
0.0092722994
0.0035069048
0.0011840613
0.00035441754
0.00014967981
0.00033702918
0.0024159927
0.10121134
0.11699154
0.13785398
0.18782163
0.44222354
1.1763045
2.1478481
2.8946035
3.0078013
2.4609152
1.6391714
1.3129824
1.8022874
2.3164105
2.301168
1.9088821
1.3672714
0.84972537
0.46674759
0.23616512
0.11299751
0.051653933
0.02250869
0.0092380675
0.0034941138
0.0011798084
0.00035320387
0.00014929637
0.00033640465
0.0024115549
0.10125288
0.11700421
0.13780304
0.18740122
0.43972879
1.1701876
2.1393644
2.8856208
2.9997143
2.4541165
1.6335495
1.3090591
1.7986858
2.3107851
2.2947629
1.9030442
1.3627278
0.84664815
0.46498257
0.23525901
0.11256457
0.051457731
0.022424154
0.0092037831
0.003481303
0.0011755488
0.00035198786
0.00014891099
0.00033577387
0.0024070721
0.10129552
0.11701763
0.13775328
0.18698487
0.43724869
1.1640937
2.1309016
2.876658
2.9916428
2.4473285
1.6279339
1.3051403
1.7950977
2.3051764
2.2883686
1.8972106
1.3581852
0.84357081
0.46321713
0.23435251
0.11213138
0.05126139
0.02233955
0.0091694689
0.0034684805
0.001171285
0.00035077031
0.00014852419
0.00033513844
0.0024025558
0.10133925
0.1170318
0.13770468
0.18657248
0.43478368
1.1580224
2.1224582
2.8677138
2.9835872
2.4405537
1.6223281
1.3012271
1.7915197
2.2995804
2.2819836
1.8913823
1.3536458
0.84049582
0.46145312
0.23344676
0.11169854
0.051065207
0.022255015
0.0091351833
0.0034556689
0.0011670248
0.00034955355
0.00014813687
0.00033450019
0.002398019
0.10138405
0.11704669
0.1376572
0.18616376
0.43233055
1.1519748
2.1140331
2.8587876
2.975548
2.4337938
1.6167345
1.2973203
1.7879495
2.2939942
2.2756069
1.8855596
1.3491105
0.83742406
0.45969109
0.23254203
0.11126617
0.050869231
0.022170567
0.0091009322
0.0034428701
0.0011627689
0.00034833773
0.00014774913
0.00033385942
0.0023934639
0.10142992
0.11706228
0.13761081
0.18575904
0.42989538
1.1459483
2.1056257
2.8498787
2.9675253
2.4270499
1.6111549
1.2934206
1.7843851
2.2884155
2.2692375
1.8797428
1.3445801
0.83435657
0.45793187
0.23163886
0.11083458
0.050673616
0.022086277
0.009066747
0.0034300964
0.0011585214
0.00034712422
0.00014736167
0.00033321792
0.0023889034
0.10147682
0.11707855
0.13756548
0.18535822
0.42747792
1.1399429
2.0972353
2.8409865
2.9595194
2.4203224
1.6055907
1.2895283
1.7808248
2.2828426
2.2628746
1.8739317
1.3400548
0.83129338
0.45617536
0.23073709
0.11040365
0.050478286
0.022002107
0.0090326087
0.0034173401
0.0011542795
0.00034591219
0.00014697432
0.00033257573
0.0023843379
0.10152475
0.11709548
0.1375212
0.18496121
0.42507799
1.1339588
2.0888613
2.8321107
2.9515302
2.4136119
1.6000429
1.2856439
1.7772674
2.2772739
2.2565174
1.8681265
1.3355353
0.82823546
0.45442239
0.22983729
0.10997368
0.050283407
0.021918133
0.0089985517
0.0034046144
0.001150048
0.00034470303
0.00014658757
0.00033193368
0.0023797733
0.10157367
0.11711303
0.13747792
0.18456792
0.4226954
1.1279958
2.0805034
2.8232507
2.9435576
2.4069189
1.5945121
1.2817673
1.773712
2.2717085
2.2501652
1.8623268
1.3310215
0.82518273
0.45267283
0.22893932
0.1095446
0.050088924
0.021834328
0.0089645622
0.0033919139
0.0011458247
0.00034349611
0.00014620116
0.00033129128
0.002375206
0.10162356
0.11713119
0.13743562
0.18417829
0.42032996
1.122054
2.0721612
2.8144065
2.9356018
2.4002436
1.588999
1.2778988
1.7701578
2.2661453
2.2438174
1.8565326
1.3265136
0.82213559
0.45092708
0.22804349
0.1091166
0.049894939
0.021750741
0.0089306626
0.0033792474
0.0011416129
0.00034229243
0.00014581559
0.0003306498
0.0023706453
0.10167438
0.11714992
0.13739426
0.18379222
0.4179815
1.1161335
2.0638345
2.8055776
2.9276627
2.3935865
1.5835039
1.2740385
1.7666045
2.2605839
2.2374737
1.8507434
1.322011
0.81909337
0.44918453
0.22714936
0.10868938
0.049701303
0.0216673
0.0088968198
0.0033666016
0.0011374079
0.00034109061
0.00014543049
0.00033000875
0.0023660877
0.10172612
0.1171692
0.13735381
0.18340965
0.41564987
1.1102344
2.055523
2.7967637
2.91974
2.3869479
1.578027
1.2701863
1.7630516
2.2550238
2.2311337
1.8449591
1.3175141
0.81605666
0.44744575
0.22625733
0.10826321
0.049508148
0.021584068
0.008863063
0.0033539882
0.0011332136
0.00033989185
0.0001450462
0.00032936864
0.0023615367
0.10177874
0.11718898
0.13731423
0.18303049
0.41333489
1.1043567
2.0472264
2.7879647
2.9118338
2.3803281
1.5725686
1.2663422
1.759499
2.2494645
2.2247969
1.8391796
1.3130225
0.81302501
0.44571034
0.22536712
0.10783792
0.049315381
0.021500999
0.008829371
0.0033413986
0.0011290272
0.00033869522
0.00014466237
0.00032872871
0.002356987
0.1018322
0.11720925
0.13727548
0.18265468
0.41103641
1.0985004
2.0389447
2.7791803
2.9039441
2.3737272
1.5671287
1.2625062
1.7559463
2.2439057
2.2184633
1.8334046
1.3085363
0.80999868
0.4439786
0.22447898
0.10741365
0.049123092
0.021418138
0.0087957642
0.0033288411
0.0011248515
0.00033750166
0.00014427947
0.00032809025
0.0023524478
0.10188646
0.11722996
0.13723753
0.18228212
0.40875427
1.0926656
2.0306776
2.7704104
2.8960707
2.367145
1.5617073
1.258678
1.7523932
2.2383473
2.2121328
1.827634
1.3040549
0.80697694
0.44224985
0.22359241
0.10699011
0.048931113
0.021335404
0.0087622061
0.003316301
0.0011206814
0.00033630967
0.00014389708
0.00032745266
0.0023479149
0.10194149
0.11725107
0.13720033
0.18191276
0.40648831
1.0868525
2.0224248
2.7616548
2.8882135
2.3605814
1.5563045
1.2548578
1.7488393
2.2327889
2.2058051
1.8218678
1.2995789
0.80396051
0.44052475
0.22270786
0.10656757
0.048739595
0.021252869
0.0087287288
0.0033037912
0.0011165214
0.00033512053
0.00014351557
0.00032681644
0.0023433919
0.10199724
0.11727256
0.13716383
0.18154651
0.40423838
1.0810603
2.0141872
2.7529132
2.8803723
2.3540364
1.5509204
1.2510454
1.7452845
2.2272304
2.1994804
1.816106
1.2951079
0.80094901
0.43880293
0.22182508
0.10614587
0.04854844
0.021170485
0.0086953101
0.0032913024
0.0011123682
0.00033393324
0.00014313451
0.00032618068
0.0023388722
0.10205368
0.11729437
0.137128
0.18118329
0.40200432
1.0752879
2.0059666
2.7441853
2.8725472
2.34751
1.5455548
1.2472407
1.7417288
2.2216718
2.1931583
1.8103485
1.2906422
0.79794269
0.43708469
0.2209443
0.10572515
0.048357742
0.021088297
0.008661971
0.0032788433
0.0011082247
0.00033274875
0.00014275437
0.00032554652
0.002334364
0.10211075
0.11731647
0.13709279
0.18082301
0.39978598
1.0695349
1.9977631
2.7354716
2.8647377
2.3410023
1.5402076
1.2434437
1.7381723
2.2161133
2.186839
1.804595
1.2861809
0.79494068
0.43536924
0.22006496
0.10530509
0.048167315
0.021006216
0.0086286714
0.0032663977
0.0011040855
0.00033156542
0.00014237467
0.00032491332
0.0023298628
0.1021684
0.11733881
0.13705815
0.1804656
0.39758321
1.0638007
1.9895768
2.7267727
2.8569438
2.3345134
1.5348787
1.2396542
1.7346149
2.2105548
2.1805225
1.7988457
1.2817247
0.7919437
0.43365723
0.21918752
0.10488596
0.047977311
0.020924316
0.0085954444
0.003253979
0.0010999551
0.00033038459
0.00014199577
0.00032428151
0.0023253716
0.1022266
0.11736136
0.13702403
0.18011098
0.39539586
1.0580851
1.9814076
2.7180884
2.8491652
2.3280434
1.5295679
1.2358722
1.7310571
2.2049967
2.1742088
1.7931005
1.2772732
0.78895126
0.43194822
0.21831167
0.10446757
0.047787622
0.020842542
0.0085622653
0.0032415771
0.0010958299
0.00032920514
0.00014161722
0.00032365006
0.0023208829
0.10228528
0.11738406
0.13699039
0.17975905
0.39322376
1.0523883
1.9732553
2.7094187
2.8414019
2.3215922
1.5242749
1.2320976
1.727499
2.199439
2.1678981
1.7873596
1.2728265
0.78596364
0.43024252
0.21743767
0.10405008
0.047598348
0.020760946
0.0085291575
0.0032292013
0.0010917134
0.00032802816
0.00014123956
0.00032302039
0.002316407
0.10234439
0.11740688
0.13695717
0.17940973
0.39106675
1.04671
1.9651198
2.7007634
2.8336536
2.3151597
1.5189996
1.2283302
1.7239405
2.1938822
2.1615906
1.7816226
1.2683841
0.78298002
0.42853935
0.21656493
0.10363315
0.047409292
0.020679431
0.0084960776
0.0032168346
0.0010875994
0.00032685186
0.00014086226
0.00032239175
0.0023119387
0.10240388
0.11742976
0.13692433
0.17906294
0.38892467
1.0410503
1.9570011
2.6921223
2.82592
2.3087457
1.5137416
1.22457
1.7203819
2.1883264
2.1552866
1.7758903
1.2639468
0.78000138
0.42683955
0.21569405
0.10321711
0.047220641
0.020598087
0.0084630656
0.0032044925
0.0010834935
0.00032567784
0.00014048576
0.00032176467
0.0023074816
0.10246369
0.11745265
0.1368918
0.17871857
0.38679734
1.035409
1.9488989
2.6834952
2.8182009
2.3023499
1.5085007
1.2208168
1.7168232
2.1827717
2.1489864
1.7701627
1.2595145
0.77702735
0.42514272
0.21482469
0.10280177
0.047032277
0.020516856
0.0084300945
0.0031921642
0.0010793916
0.00032450486
0.00014010952
0.00032113791
0.0023030269
0.10252376
0.11747552
0.13685955
0.17837655
0.3846846
1.029786
1.9408131
2.6748818
2.8104961
2.2959725
1.5032766
1.2170705
1.7132645
2.1772185
2.1426901
1.76444
1.2550876
0.77405841
0.42344932
0.21395723
0.10238735
0.046844331
0.020435801
0.0083971936
0.0031798615
0.0010752981
0.00032333423
0.00013973416
0.00032051301
0.0022985857
0.10258404
0.11749831
0.1368275
0.17803677
0.38258625
1.0241813
1.9327436
2.666282
2.8028052
2.2896136
1.4980687
1.2133311
1.7097065
2.1716672
2.1363981
1.7587222
1.2506653
0.7710936
0.42175844
0.21309099
0.10197345
0.046656577
0.020354812
0.0083643133
0.0031675645
0.0010712059
0.00032216392
0.00013935906
0.00031988904
0.0022941513
0.10264447
0.11752098
0.13679562
0.17769916
0.38050211
1.0185948
1.9246902
2.6576956
2.7951279
2.2832731
1.4928765
1.2095986
1.7061493
2.1661181
2.1301108
1.7530098
1.2462486
0.76813396
0.420071
0.21222662
0.10156044
0.046469223
0.020273991
0.0083314989
0.0031552913
0.0010671214
0.00032099575
0.00013898473
0.00031926661
0.002289728
0.10270498
0.11754347
0.13676384
0.17736363
0.378432
1.0130264
1.9166527
2.6491223
2.787464
2.2769511
1.4876995
1.205873
1.7025937
2.1605718
2.1238284
1.7473028
1.2418373
0.76517902
0.41838651
0.21136373
0.10114809
0.046282138
0.020193272
0.0082987202
0.0031430296
0.0010630401
0.00031982834
0.00013861055
0.00031864429
0.0022853056
0.1027655
0.11756574
0.13673212
0.17703006
0.37637575
1.0074759
1.908631
2.6405619
2.7798132
2.2706477
1.4825372
1.2021543
1.6990398
2.1550284
2.1175511
1.7416016
1.2374316
0.76222929
0.41670546
0.21050274
0.10073666
0.046095467
0.020112728
0.0082660107
0.0031307929
0.0010589669
0.00031866322
0.00013823725
0.00031802391
0.0022808972
0.10282599
0.11758774
0.1367004
0.17669839
0.37433316
1.0019433
1.900625
2.6320142
2.7721752
2.2643628
1.4773887
1.1984426
1.6954883
2.1494884
2.1112795
1.7359061
1.2330312
0.75928387
0.41502696
0.20964294
0.10032571
0.04590897
0.020032239
0.0082333167
0.0031185597
0.0010548942
0.00031749816
0.00013786417
0.0003174045
0.0022764959
0.10288637
0.11760942
0.13666863
0.17636852
0.37230405
0.99642853
1.8926343
2.623479
2.7645495
2.2580958
1.4722536
1.1947384
1.6919393
2.1439523
2.1050137
1.730217
1.2286371
0.75634404
0.41335211
0.20878511
0.09991571
0.045722891
0.019951926
0.0082006909
0.003106351
0.0010508293
0.00031633527
0.00013749188
0.0003167867
0.0022721062
0.10294659
0.11763073
0.13663676
0.17604036
0.37028822
0.99093132
1.8846589
2.614956
2.756936
2.2518425
1.4671353
1.191045
1.6883931
2.1384203
2.0987542
1.7245347
1.2242492
0.75340941
0.41168045
0.20792888
0.099506412
0.045537096
0.019871718
0.008168102
0.0030941538
0.0010467676
0.0003151731
0.00013711972
0.00031616901
0.0022677174
0.10300657
0.11765163
0.13660473
0.17571381
0.36828548
0.98545161
1.8766985
2.606445
2.7493341
2.2456026
1.4620336
1.1873622
1.6848497
2.1328925
2.0925014
1.7188594
1.2198679
0.7504806
0.41001257
0.20707469
0.099098103
0.045351745
0.019791697
0.0081355865
0.0030819831
0.0010427144
0.0003140133
0.00013674846
0.00031555324
0.0022633425
0.10306626
0.11767207
0.1365725
0.17538879
0.36629562
0.9799893
1.868753
2.5979457
2.7417437
2.239376
1.4569481
1.18369
1.6813095
2.1273697
2.0862558
1.7131911
1.2154928
0.74755666
0.40834751
0.20622183
0.098690334
0.04516659
0.019711741
0.0081030892
0.0030698167
0.0010386618
0.00031285359
0.0001363774
0.00031493834
0.002258974
0.10312559
0.117692
0.13654001
0.17506522
0.36431845
0.97454423
1.860822
2.5894577
2.7341645
2.2331624
1.4518787
1.1800283
1.6777726
2.121852
2.0800176
1.7075307
1.211125
0.74463887
0.40668638
0.20537107
0.098283563
0.044981878
0.019631968
0.0080706637
0.0030576759
0.0010346175
0.00031169613
0.00013600711
0.000314325
0.0022546168
0.1031845
0.11771137
0.13650722
0.17474299
0.36235379
0.96911622
1.8529055
2.5809809
2.7265961
2.2269615
1.446825
1.1763771
1.6742393
2.1163397
2.0737874
1.7018783
1.2067643
0.7417268
0.40502871
0.20452203
0.097877551
0.044797472
0.019552311
0.0080382785
0.003045548
0.0010305766
0.00031053947
0.00013563696
0.00031371167
0.0022502597
0.10324293
0.11773015
0.13647407
0.17442204
0.36040144
0.96370518
1.8450031
2.572515
2.7190383
2.2207732
1.441787
1.1727363
1.6707096
2.1108331
2.0675653
1.6962344
1.2024113
0.73882108
0.40337508
0.20367516
0.097472585
0.044613536
0.019472852
0.0080059711
0.003033448
0.0010265448
0.0003093853
0.00013526773
0.00031310029
0.0022459166
0.10330081
0.11774829
0.13644052
0.17410228
0.3584612
0.95831099
1.8371147
2.5640597
2.7114907
2.2145968
1.4367642
1.1691059
1.6671839
2.1053327
2.0613519
1.6905989
1.1980654
0.73592083
0.40172458
0.20282976
0.097068226
0.044429824
0.019393468
0.0079736863
0.0030213538
0.0010225141
0.00030823136
0.00013489874
0.00031248987
0.0022415806
0.10335808
0.11776574
0.13640653
0.17378362
0.3565329
0.95293347
1.82924
2.5556147
2.7039532
2.2084319
1.4317565
1.1654858
1.6636623
2.0998386
2.0551476
1.6849728
1.193728
0.73302745
0.40007841
0.20198665
0.096664958
0.044246597
0.019314287
0.0079414805
0.003009288
0.0010184924
0.00030707989
0.00013453058
0.00031188102
0.002237256
0.10341468
0.11778247
0.13637205
0.173466
0.35461636
0.94757247
1.8213788
2.5471798
2.6964252
2.2022784
1.4267637
1.1618759
1.6601447
2.0943513
2.0489527
1.6793562
1.1893989
0.73014058
0.39843612
0.20114548
0.096262549
0.044063721
0.01923524
0.0079093227
0.0029972377
0.0010144751
0.00030592946
0.0001341626
0.00031127222
0.0022329317
0.10347056
0.11779844
0.13633705
0.17314933
0.35271137
0.9422279
1.8135308
2.5387545
2.6889065
2.1961358
1.4217854
1.1582761
1.6566313
2.0888709
2.0427675
1.6737496
1.1850787
0.72726087
0.39679832
0.20030671
0.095861296
0.043881365
0.019156412
0.007877251
0.0029852185
0.0010104678
0.00030478179
0.00013379558
0.00031066529
0.002228621
0.10352565
0.1178136
0.13630147
0.17283354
0.35081778
0.93689959
1.8056959
2.5303387
2.6813967
2.190004
1.4168213
1.1546863
1.6531224
2.0833981
2.0365925
1.6681529
1.1807669
0.72438742
0.39516411
0.19946965
0.095460769
0.043699289
0.019077685
0.0078452127
0.0029732093
0.0010064631
0.0003036347
0.00013342884
0.00031005924
0.0022243165
0.10357989
0.11782792
0.1362653
0.17251857
0.3489354
0.93158737
1.7978738
2.5219319
2.6738957
2.1838827
1.4118712
1.1511065
1.6496181
2.0779331
2.0304281
1.6625671
1.1764646
0.72152152
0.3935346
0.19863508
0.095061427
0.043517741
0.018999179
0.0078132611
0.0029612312
0.0010024683
0.00030249036
0.00013306297
0.00030945465
0.0022200227
0.10363323
0.11784138
0.13622848
0.17220434
0.34706405
0.92629113
1.7900642
2.513534
2.6664029
2.1777715
1.4069349
1.1475365
1.6461185
2.072476
2.0242748
1.6569922
1.1721717
0.71866279
0.39190935
0.19780264
0.094663045
0.043336594
0.01892083
0.0077813669
0.0029492724
0.00099847926
0.00030134739
0.00013269734
0.0003088501
0.0022157291
0.10368562
0.11785392
0.13619099
0.17189078
0.34520357
0.92101075
1.782267
2.5051445
2.658918
2.1716701
1.4020119
1.1439763
1.6426236
2.0670271
2.0181327
1.6514287
1.1678888
0.71581187
0.39028893
0.19697277
0.094265901
0.043156003
0.018842716
0.0077495656
0.0029373472
0.00099450098
0.00030020742
0.00013233271
0.00030824742
0.0022114488
0.103737
0.11786553
0.1361528
0.17157783
0.3433538
0.91574608
1.7744819
2.4967633
2.651441
2.1655781
1.3971021
1.1404256
1.6391337
2.0615868
2.0120022
1.6458765
1.1636153
0.71296793
0.38867253
0.19614484
0.093869595
0.042975746
0.018764728
0.0077178077
0.0029254358
0.00099052656
0.00029906841
0.00013196846
0.0003076457
0.0022071756
0.10378732
0.11787617
0.13611386
0.17126544
0.34151457
0.91049696
1.7667087
2.48839
2.6439712
2.1594949
1.3922052
1.1368843
1.6356487
2.056155
2.0058837
1.6403365
1.1593525
0.71013229
0.38706124
0.19531961
0.093474575
0.042796064
0.01868698
0.007686145
0.0029135588
0.00098656317
0.00029793242
0.00013160512
0.00030704544
0.0022029129
0.10383654
0.11788581
0.13607416
0.17095355
0.33968574
0.9052633
1.7589472
2.4800242
2.6365083
2.1534204
1.3873209
1.1333524
1.6321687
2.0507322
1.9997774
1.6348089
1.1551002
0.70730455
0.38545463
0.19449673
0.093080623
0.042616833
0.018609412
0.0076545491
0.0029017046
0.00098260672
0.00029679817
0.00013124211
0.00030644525
0.0021986506
0.1038846
0.11789442
0.13603367
0.17064211
0.33786716
0.90004499
1.7511971
2.4716657
2.6290522
2.1473544
1.3824488
1.1298297
1.6286938
2.0453185
1.9936836
1.6292938
1.1508589
0.70448527
0.38385322
0.19367661
0.092687998
0.0424382
0.018532098
0.0076230539
0.0028898871
0.00097866209
0.00029566719
0.00013088012
0.00030584681
0.0021944009
0.10393146
0.11790199
0.13599237
0.17033106
0.3360587
0.89484189
1.7434582
2.4633143
2.6216025
2.1412965
1.3775888
1.126316
1.6252241
2.0399142
1.9876025
1.6237914
1.146628
0.70167366
0.38225622
0.19285864
0.092296328
0.042259958
0.018454936
0.0075916137
0.0028780879
0.0009747229
0.00029453761
0.00013051858
0.00030524925
0.0021901576
0.10397708
0.11790849
0.13595024
0.17002036
0.33426022
0.88965391
1.7357304
2.4549695
2.6141587
2.1352464
1.3727404
1.1228112
1.6217595
2.0345195
1.9815345
1.6183022
1.1424087
0.69887087
0.38066464
0.19204353
0.091906024
0.04208233
0.018378032
0.0075602763
0.0028663262
0.00097079578
0.00029341134
0.000130158
0.0003046531
0.0021859243
0.10402141
0.1179139
0.13590726
0.16970998
0.3324716
0.88448099
1.7280135
2.4466312
2.6067207
2.1292038
1.3679034
1.1193153
1.6183002
2.0291347
1.9754798
1.6128263
1.1382006
0.69607652
0.37907804
0.19123095
0.091516876
0.041905196
0.018301329
0.0075290146
0.0028545908
0.00096687682
0.00029228716
0.00012979781
0.00030405699
0.0021816913
0.10406442
0.1179182
0.13586341
0.16939987
0.33069272
0.87932301
1.7203073
2.4382991
2.5992883
2.1231683
1.3630777
1.115828
1.6148462
2.0237598
1.9694386
1.6073641
1.1340044
0.69329113
0.37749693
0.19042127
0.091129133
0.041728698
0.018224897
0.0074978609
0.002842895
0.00096297067
0.00029116654
0.00012943871
0.00030346269
0.0021774712
0.10410607
0.11792137
0.13581869
0.16909
0.32892348
0.87417989
1.7126117
2.429973
2.591861
2.1171394
1.3582628
1.1123492
1.6113977
2.0183951
1.9634112
1.6019154
1.1298193
0.69051387
0.3759205
0.18961389
0.090742409
0.041552623
0.01814863
0.0074667683
0.0028312198
0.00095907078
0.00029004755
0.00012908012
0.00030286931
0.0021732577
0.10414633
0.11792341
0.13577309
0.16878034
0.32716377
0.86905158
1.7049264
2.4216525
2.5844386
2.1111171
1.3534585
1.1088788
1.6079546
2.0130405
1.9573978
1.5964809
1.1256466
0.68774594
0.37434975
0.18880951
0.09035713
0.041377199
0.018072641
0.0074357862
0.0028195851
0.00095518404
0.00028893218
0.00012872255
0.00030227736
0.0021690544
0.10418515
0.11792429
0.13572658
0.16847085
0.32541351
0.86393801
1.6972513
2.4133376
2.5770209
2.105101
1.3486645
1.1054165
1.6045168
2.0076963
1.9513985
1.5910607
1.1214859
0.68498692
0.37278427
0.18800779
0.089973075
0.041202303
0.017996866
0.0074048863
0.0028079794
0.00095130633
0.00028781915
0.0001283654
0.00030168537
0.0021648507
0.10422252
0.117924
0.13567917
0.16816151
0.32367258
0.85883913
1.6895863
2.4050278
2.5696076
2.0990909
1.3438807
1.1019623
1.6010842
2.0023623
1.9454135
1.585655
1.1173378
0.68223742
0.3712246
0.18720917
0.089590521
0.04102809
0.017921385
0.0073741044
0.0027964172
0.00094744284
0.00028671008
0.00012800944
0.00030109521
0.0021606601
0.1042584
0.11792254
0.13563084
0.1678523
0.32194092
0.8537549
1.6819313
2.396723
2.5621984
2.0930866
1.3391067
1.0985159
1.5976569
1.9970389
1.9394429
1.5802636
1.1132015
0.6794965
0.36966988
0.18641298
0.089209064
0.040854337
0.017846087
0.0073433908
0.0027848785
0.00094358663
0.00028560293
0.00012765402
0.00030050588
0.0021564754
0.10429278
0.1179199
0.1355816
0.16754321
0.32021845
0.84868529
1.6742861
2.3884231
2.5547933
2.0870878
1.3343422
1.0950772
1.5942349
1.991726
1.9334869
1.5748871
1.1090782
0.67676537
0.36812113
0.18561996
0.088829134
0.040681277
0.017771086
0.0073127966
0.0027733839
0.00093974479
0.00028449976
0.00012729969
0.00029991798
0.0021523009
0.10432562
0.11791607
0.13553144
0.16723419
0.31850511
0.84363031
1.6666508
2.3801279
2.5473919
2.0810942
1.3295871
1.0916462
1.5908181
1.9864238
1.9275455
1.5695255
1.1049675
0.67404354
0.36657787
0.18482973
0.088450495
0.040508777
0.017696315
0.007282291
0.0027619208
0.00093591289
0.00028339917
0.0001269458
0.00029932996
0.0021481254
0.1043569
0.11791104
0.13548037
0.16692524
0.31680086
0.83858991
1.6590252
2.3718372
2.5399941
2.0751055
1.3248413
1.0882226
1.5874064
1.981132
1.9216187
1.564179
1.1008699
0.67133156
0.36504064
0.18404272
0.088073424
0.040336996
0.017621853
0.0072519108
0.0027505041
0.00093209625
0.00028230285
0.00012659318
0.00029874382
0.0021439633
0.10438661
0.11790481
0.13542838
0.16661637
0.31510563
0.83356414
1.6514093
2.3635509
2.5325998
2.0691216
1.3201043
1.0848063
1.584
1.9758512
1.9157068
1.5588473
1.0967845
0.66862839
0.36350846
0.18325819
0.087697472
0.040165685
0.01754758
0.0072216012
0.0027391121
0.00092828725
0.00028120855
0.00012624112
0.00029815848
0.0021398069
0.10441473
0.11789738
0.13537547
0.16630756
0.31341938
0.82855303
1.643803
2.3552689
2.5252088
2.0631423
1.3153762
1.0813971
1.5805988
1.970581
1.9098098
1.5535309
1.0927125
0.66593529
0.36198243
0.18247693
0.087323104
0.039995096
0.017473618
0.0071914174
0.0027277666
0.00092449357
0.00028011852
0.00012589022
0.00029757462
0.002135661
0.10444124
0.11788876
0.13532167
0.16599879
0.3117421
0.82355658
1.6362063
2.346991
2.5178209
2.0571675
1.3106566
1.0779951
1.5772027
1.9653216
1.9039278
1.5482298
1.0886534
0.66325171
0.36046203
0.18169854
0.086950072
0.039825091
0.017399897
0.0071613276
0.0027164549
0.00092071062
0.0002790313
0.0001255398
0.00029699059
0.0021315137
0.10446614
0.11787892
0.13526696
0.16569009
0.31007375
0.81857486
1.6286193
2.3387173
2.5104361
2.051197
1.3059455
1.0746
1.5738116
1.9600728
1.8980607
1.5429441
1.0846077
0.66057821
0.3589478
0.18092346
0.086578662
0.039655834
0.017326501
0.0071313699
0.0027051924
0.00091694393
0.00027794863
0.00012519069
0.00029640838
0.0021273793
0.10448941
0.11786789
0.13521137
0.16538145
0.3084143
0.81360795
1.6210418
2.3304476
2.5030544
2.0452308
1.3012426
1.0712117
1.5704255
1.9548347
1.8922085
1.5376734
1.0805746
0.65791372
0.35743876
0.18015095
0.086208417
0.039487071
0.017253305
0.0071014881
0.0026939567
0.00091318563
0.00027686821
0.00012484216
0.0002958269
0.00212325
0.10451104
0.11785566
0.1351549
0.16507287
0.30676374
0.80865586
1.6134741
2.3221819
2.4956757
2.0392686
1.2965478
1.06783
1.5670443
1.9496072
1.8863713
1.5324183
1.076555
0.65525947
0.35593599
0.17938178
0.085839796
0.039319052
0.017180431
0.0070717367
0.0026827695
0.00090944335
0.00027579225
0.00012449483
0.0002952469
0.0021191313
0.10453103
0.11784224
0.13509755
0.16476436
0.30512205
0.8037187
1.6059161
2.3139203
2.4882999
2.0333103
1.2918611
1.064455
1.5636679
1.9443904
1.8805491
1.5271785
1.0725485
0.65261486
0.35443892
0.17861552
0.085472537
0.039151631
0.017107806
0.0070420828
0.0026716174
0.00090571232
0.00027471925
0.00012414801
0.00029466666
0.0021150105
0.10454937
0.11782763
0.13503934
0.16445591
0.30348925
0.79879659
1.5983679
2.3056626
2.480927
2.0273558
1.2871822
1.0610864
1.5602962
1.939184
1.8747417
1.5219542
1.0685554
0.6499804
0.35294807
0.1778526
0.085106918
0.038984968
0.01703551
0.0070125635
0.0026605158
0.00090199799
0.00027365095
0.00012380253
0.00029408832
0.0021109033
0.10456606
0.11781183
0.13498027
0.16414754
0.30186531
0.79388958
1.5908296
2.297409
2.4735571
2.0214053
1.2825112
1.0577243
1.5569293
1.9339883
1.8689493
1.516745
1.064575
0.64735494
0.35146239
0.17709224
0.084742461
0.038818798
0.016963415
0.0069831207
0.0026494411
0.0008982922
0.00027258494
0.00012345767
0.00029351076
0.0021068017
0.1045811
0.11779485
0.13492035
0.16383925
0.30025025
0.78899779
1.5833013
2.2891594
2.4661902
2.0154586
1.2778479
1.0543685
1.5535672
1.9288031
1.8631717
1.5115513
1.0606081
0.64473975
0.349983
0.17633524
0.084379644
0.038653384
0.016891647
0.0069538115
0.0026384165
0.00089460295
0.00027152357
0.00012311407
0.00029293475
0.0021027109
0.10459448
0.11777669
0.1348596
0.16353104
0.29864408
0.78412139
1.5757831
2.280914
2.4588263
2.0095157
1.2731924
1.051019
1.5502097
1.9236285
1.857409
1.506373
1.0566544
0.64213424
0.34850934
0.17558118
0.084018204
0.038488576
0.016820134
0.0069246021
0.002627428
0.00089092536
0.00027046528
0.00012277098
0.00029235848
0.0020986182
0.10460621
0.11775737
0.13479803
0.16322294
0.29704682
0.77926047
1.5682751
2.2726728
2.4514656
2.0035768
1.2685445
1.0476757
1.5468568
1.9184641
1.8516611
1.5012102
1.0527142
0.63953893
0.34704195
0.17483049
0.083658426
0.038324539
0.016748957
0.0068955306
0.0026164913
0.00088726498
0.00026941184
0.00012242927
0.00029178407
0.0020945385
0.1046163
0.11773688
0.13473564
0.16291496
0.29545849
0.77441518
1.5607776
2.2644359
2.4441082
1.9976416
1.2639044
1.0443386
1.5435085
1.9133102
1.8459278
1.4960623
1.0487866
0.63695269
0.34557979
0.1740824
0.083299836
0.038161011
0.016677988
0.0068665391
0.0026055832
0.00088361369
0.00026836086
0.00012208819
0.00029121039
0.0020904641
0.10462475
0.11771525
0.13467245
0.16260709
0.29387909
0.76958571
1.5532907
2.2562036
2.4367541
1.9917103
1.2592719
1.0410078
1.5401647
1.9081665
1.8402092
1.4909299
1.0448726
0.63437669
0.34412391
0.17333766
0.082942888
0.03799824
0.016607349
0.0068376825
0.0025947256
0.00087997919
0.00026731458
0.00012174836
0.00029063818