/*--------------------------------*- C++ -*----------------------------------*\
| =========                 |                                                 |
| \\      /  F ield         | OpenFOAM: The Open Source CFD Toolbox           |
|  \\    /   O peration     | Version:  v2012                                 |
|   \\  /    A nd           | Website:  www.openfoam.com                      |
|    \\/     M anipulation  |                                                 |
\*---------------------------------------------------------------------------*/
FoamFile
{
    version     2.0;
    format      ascii;
    class       volScalarField;
    location    "500";
    object      Ma;
}
// * * * * * * * * * * * * * * * * * * * * * * * * * * * * * * * * * * * * * //

dimensions      [0 0 0 0 0 0 0];


internalField   nonuniform List<scalar> 
24000
(
0.043156998
0.043476408
0.044225418
0.045271485
0.046005331
0.045285027
0.043755743
0.042259563
0.040853457
0.039282256
0.037318485
0.034614693
0.031065189
0.027253077
0.023447171
0.019846427
0.016601582
0.013751398
0.011289461
0.0091922204
0.0074223697
0.0059359058
0.0046904678
0.0036484504
0.0027774776
0.0020499997
0.001442709
0.00093594768
0.00051318557
0.00016055135
0.043141576
0.043462388
0.0442148
0.045269222
0.046017435
0.045303513
0.043769086
0.04226395
0.040849912
0.039273129
0.03730634
0.034602794
0.031056091
0.027247146
0.023444506
0.019847057
0.016605636
0.013758815
0.011300215
0.0092060869
0.0074387223
0.0059537569
0.0047086451
0.0036658048
0.0027930434
0.0020630766
0.0014528805
0.00094305854
0.00051729698
0.00016189122
0.043127373
0.043446993
0.044194813
0.045239567
0.045984339
0.045276474
0.043743597
0.042238708
0.040824628
0.039247972
0.037281143
0.03457875
0.031034918
0.027229227
0.023429968
0.019836094
0.016596859
0.013751216
0.011292923
0.0091984909
0.0074305988
0.0059452451
0.0047001125
0.003657698
0.0027857742
0.0020569593
0.001448109
0.00093971099
0.00051535293
0.00016125394
0.043112207
0.043430878
0.044175848
0.045216754
0.045965406
0.045263655
0.04373012
0.042222129
0.040805304
0.039226709
0.037258534
0.034556137
0.031014276
0.027211363
0.023415129
0.019824466
0.016588109
0.01374498
0.011288924
0.0091964541
0.0074301791
0.0059460363
0.0047016925
0.003659677
0.002787829
0.0020588457
0.0014496631
0.00094084071
0.0005160245
0.00016147801
0.043096728
0.043414386
0.044156646
0.045194248
0.045946933
0.045250739
0.043716096
0.042204621
0.040784843
0.0392041
0.037234249
0.034531171
0.030990564
0.027190018
0.023396589
0.019809116
0.016575696
0.01373504
0.011280976
0.00919006
0.0074249797
0.0059417742
0.0046981973
0.0036568375
0.0027855679
0.0020571045
0.0014483908
0.00093998882
0.00051554526
0.00016132454
0.043081023
0.043397768
0.044137685
0.045172588
0.045929759
0.045239057
0.043703211
0.04218796
0.040764929
0.039181766
0.03720996
0.034505755
0.030965963
0.027167547
0.023376803
0.019792491
0.01656208
0.01372406
0.011272254
0.0091832273
0.0074196903
0.0059377244
0.0046951333
0.0036545523
0.0027838951
0.0020559126
0.0014475773
0.00093947405
0.00051526838
0.00016123928
0.043065203
0.043381114
0.044118895
0.045151333
0.045913061
0.045227799
0.043690709
0.042171512
0.04074509
0.039159364
0.037185412
0.03447978
0.0309405
0.027144019
0.023355858
0.019774677
0.016547308
0.013711988
0.01126251
0.0091754418
0.007413515
0.0059328606
0.004691337
0.0036516278
0.0027816852
0.0020542903
0.0014464398
0.00093873776
0.000514865
0.00016111302
0.043049327
0.04336447
0.044100255
0.045130376
0.045896645
0.04521687
0.043678496
0.042155242
0.040725333
0.039136962
0.037160754
0.034453506
0.030914535
0.02711987
0.023334227
0.01975616
0.01653186
0.013699295
0.011252221
0.0091671952
0.007406964
0.0059277
0.0046873131
0.0036485332
0.0027793515
0.0020525809
0.0014452439
0.00093796517
0.00051444248
0.00016098101
0.043033432
0.043347853
0.044081727
0.045109591
0.045880376
0.045206088
0.043666433
0.042139098
0.040705614
0.039114544
0.037136006
0.034427016
0.030888218
0.027095294
0.023312116
0.01973715
0.016515936
0.013686158
0.011241531
0.0091585963
0.0074001083
0.0059222804
0.004683073
0.0036452624
0.0027768782
0.0020507649
0.0014439709
0.00093714139
0.00051399139
0.00016083992
0.043017538
0.043331266
0.044063284
0.04508886
0.045864174
0.045195405
0.043654491
0.042122997
0.04068595
0.039092117
0.037111203
0.034400384
0.030861669
0.027070431
0.023289687
0.019717812
0.016499693
0.013672725
0.011230576
0.0091497658
0.0073930555
0.0059166969
0.0046786993
0.0036418851
0.0027743224
0.0020488873
0.001442654
0.00093628894
0.00051352449
0.00016069387
0.043001653
0.043314707
0.044044904
0.045068221
0.045848002
0.04518477
0.043642627
0.042106976
0.040666302
0.039069684
0.037086363
0.034373655
0.03083496
0.02704537
0.023267039
0.019698252
0.016483229
0.01365909
0.011219436
0.009140775
0.0073858654
0.0059109984
0.0046742315
0.0036384325
0.0027717079
0.0020469654
0.0014413054
0.0009354157
0.00051304608
0.00016054417
0.042985781
0.043298171
0.044026574
0.045047653
0.045831834
0.045174148
0.043630822
0.042090977
0.040646658
0.039047248
0.037061499
0.03434687
0.030808143
0.027020177
0.023244238
0.019678533
0.016466611
0.013645311
0.011208166
0.0091316697
0.0073785778
0.0059052177
0.0046696962
0.0036349257
0.002769051
0.0020450118
0.0014399341
0.0009345275
0.00051255938
0.00016039186
0.042969923
0.043281655
0.044008262
0.045027075
0.045815655
0.045163551
0.043619075
0.042075012
0.040627026
0.039024817
0.037036624
0.034320043
0.030781253
0.026994893
0.023221335
0.019658707
0.016449887
0.013631433
0.011196808
0.0091224872
0.0073712247
0.0058993824
0.0046651164
0.0036313837
0.0027663666
0.0020430375
0.0014385481
0.00093362965
0.00051206736
0.00016023785
0.042954076
0.043265155
0.043989968
0.045006514
0.045799456
0.045152939
0.043607367
0.042059094
0.040607435
0.039002393
0.037011744
0.034293193
0.030754317
0.026969548
0.023198362
0.019638807
0.016433089
0.013617485
0.011185385
0.0091132485
0.0073638231
0.0058935061
0.0046605028
0.0036278145
0.0027636611
0.0020410473
0.0014371507
0.00093272437
0.00051157123
0.00016008256
0.04293824
0.043248667
0.043971699
0.044985994
0.045783231
0.045142328
0.043595713
0.042043183
0.040587854
0.038979982
0.036986866
0.034266328
0.030727357
0.026944162
0.023175344
0.019618856
0.016416241
0.01360349
0.01117392
0.0091039715
0.0073563888
0.0058876026
0.004655867
0.0036242277
0.0027609419
0.0020390468
0.001435746
0.00093181429
0.00051107243
0.00015992641
0.042922413
0.043232188
0.043953452
0.044965497
0.045766978
0.045131711
0.043584093
0.042027331
0.040568278
0.038957586
0.036961994
0.034239459
0.030700388
0.02691875
0.023152299
0.019598871
0.016399357
0.013589459
0.011162421
0.0090946651
0.0073489285
0.0058816774
0.0046512127
0.0036206256
0.0027582107
0.0020370372
0.0014343347
0.00093089987
0.00051057123
0.0001597695
0.042906593
0.043215715
0.043935223
0.044944957
0.045750689
0.045121084
0.043572531
0.04201149
0.040548721
0.038935204
0.036937133
0.034212593
0.030673413
0.026893328
0.023129241
0.019578868
0.016382451
0.013575408
0.011150905
0.0090853437
0.0073414552
0.0058757415
0.0046465501
0.0036170168
0.0027554743
0.0020350238
0.0014329207
0.00092998364
0.00051006901
0.00015961227
0.042890779
0.043199247
0.043917011
0.044924448
0.045734367
0.045110476
0.043560999
0.041995687
0.040529209
0.038912837
0.036912287
0.034185737
0.03064644
0.026867907
0.023106176
0.019558856
0.016365536
0.013561345
0.011139376
0.009076011
0.0073339711
0.0058697961
0.0046418795
0.0036134015
0.0027527327
0.0020330064
0.0014315039
0.0009290656
0.0005095658
0.00015945474
0.042874968
0.043182782
0.043898813
0.044903973
0.045718006
0.045099854
0.043549529
0.041979925
0.040509708
0.038890485
0.036887457
0.034158897
0.030619474
0.02684249
0.023083112
0.019538841
0.016348618
0.013547277
0.011127842
0.0090666736
0.0073264829
0.0058638473
0.0046372062
0.003609784
0.0027499895
0.0020309879
0.0014300863
0.00092814698
0.00050906227
0.00015929709
0.04285916
0.043166316
0.043880628
0.044883479
0.045701609
0.045089236
0.043538089
0.041964173
0.040490217
0.038868151
0.036862645
0.034132072
0.030592518
0.026817083
0.023060053
0.019518829
0.016331699
0.013533206
0.011116306
0.0090573324
0.0073189905
0.0058578943
0.0046325288
0.0036061629
0.0027472433
0.002028967
0.0014286668
0.00092722714
0.00050855805
0.00015913923
0.042843353
0.043149848
0.043862456
0.044862973
0.045685169
0.045078619
0.043526711
0.041948482
0.04047075
0.038845834
0.036837853
0.034105263
0.030565577
0.026791689
0.023037005
0.019498824
0.016314787
0.013519141
0.011104775
0.009047995
0.0073115015
0.0058519442
0.004627854
0.0036025439
0.0027444987
0.0020269474
0.0014272482
0.00092630787
0.00050805413
0.00015898146
0.042827546
0.043133379
0.043844295
0.044842495
0.045668694
0.045067984
0.043515374
0.041932799
0.040451327
0.038823541
0.036813081
0.034078481
0.03053865
0.026766309
0.023013968
0.019478831
0.016297882
0.013505079
0.011093245
0.0090386584
0.0073040125
0.0058459936
0.0046231785
0.0035989242
0.0027417536
0.0020249273
0.0014258293
0.0009253884
0.00050755012
0.00015882366
0.042811739
0.043116909
0.043826136
0.04482204
0.045652177
0.045057364
0.043504087
0.041917163
0.040431914
0.038801268
0.036788329
0.034051717
0.03051175
0.026740944
0.022990944
0.019458851
0.016280985
0.013491024
0.011081723
0.0090293266
0.0072965275
0.0058400464
0.0046185057
0.0035953067
0.0027390103
0.0020229084
0.0014244114
0.00092446954
0.00050704642
0.00015866596
0.042795931
0.043100437
0.043807967
0.044801549
0.045635626
0.045046724
0.04349285
0.041901559
0.040412513
0.03877902
0.036763597
0.034024972
0.030484873
0.026715594
0.022967937
0.019438882
0.016264097
0.013476976
0.011070205
0.0090199973
0.0072890435
0.0058340992
0.0046138324
0.0035916885
0.0027362662
0.0020208888
0.0014229929
0.00092355027
0.00050654245
0.00015850818
0.042780123
0.043083964
0.043789809
0.044781069
0.045619032
0.045036081
0.043481659
0.041885971
0.040393145
0.038756796
0.036738887
0.033998249
0.030458016
0.026690265
0.022944951
0.019418929
0.016247223
0.013462939
0.011058697
0.0090106774
0.0072815678
0.0058281592
0.0046091651
0.0035880751
0.0027335259
0.0020188721
0.0014215764
0.00092263235
0.00050603923
0.00015835062
0.042764312
0.043067488
0.043771662
0.044760617
0.045602403
0.04502544
0.043470525
0.041870445
0.040373814
0.038734591
0.036714199
0.033971547
0.03043118
0.026664962
0.022921989
0.019398992
0.016230362
0.013448913
0.011047198
0.0090013632
0.0072740968
0.0058222222
0.0046045001
0.0035844634
0.0027307869
0.0020168563
0.0014201606
0.00092171486
0.00050553626
0.00015819315
0.042748499
0.043051009
0.043753526
0.044740176
0.045585732
0.045014778
0.043459428
0.041854923
0.040354495
0.038712407
0.036689534
0.033944868
0.030404367
0.026639681
0.022899048
0.019379075
0.016213516
0.013434903
0.011035709
0.0089920586
0.0072666338
0.0058162919
0.0045998405
0.0035808561
0.0027280513
0.0020148432
0.0014187466
0.0009207986
0.00050503396
0.00015803589
0.042732683
0.043034526
0.043735401
0.044719695
0.045569025
0.04500414
0.043448378
0.041839457
0.040335189
0.038690241
0.036664891
0.033918213
0.030377575
0.026614424
0.022876128
0.019359176
0.016196684
0.013420904
0.011024229
0.0089827601
0.0072591749
0.0058103643
0.0045951826
0.0035772496
0.0027253162
0.0020128301
0.0014173327
0.0009198823
0.00050453164
0.00015787861
0.042716865
0.043018039
0.043717285
0.044699241
0.045552278
0.044993493
0.043437353
0.04182401
0.040315924
0.038668095
0.03664027
0.033891583
0.030350805
0.026589192
0.022853231
0.019339298
0.016179869
0.013406921
0.011012763
0.0089734734
0.0072517263
0.0058044457
0.004590532
0.003573649
0.0027225855
0.0020108205
0.0014159212
0.00091896758
0.00050403017
0.00015772161
0.042701043
0.043001543
0.043699179
0.044678816
0.04553549
0.044982845
0.043426376
0.041808595
0.040296688
0.038645968
0.036615671
0.033864976
0.030324058
0.026563983
0.022830354
0.019319438
0.016163069
0.013392948
0.011001305
0.0089641933
0.0072442826
0.0057985307
0.0045858842
0.0035700504
0.0027198564
0.002008812
0.0014145105
0.00091805341
0.00050352903
0.00015756472
0.042685218
0.042985043
0.043681082
0.044658376
0.045518667
0.044972215
0.04341543
0.041793224
0.040277462
0.038623865
0.036591092
0.033838389
0.030297341
0.026538794
0.022807499
0.019299596
0.016146285
0.013378989
0.010989859
0.0089549232
0.0072368473
0.0057926227
0.0045812421
0.0035664564
0.002717131
0.0020068062
0.0014131018
0.00091714056
0.00050302859
0.00015740804
0.042669388
0.042968538
0.043662995
0.044637919
0.045501797
0.04496157
0.043404521
0.041777865
0.040258253
0.038601782
0.036566534
0.033811831
0.030270649
0.026513626
0.022784663
0.019279771
0.016129516
0.01336504
0.01097842
0.0089456585
0.0072294151
0.0057867165
0.0045766009
0.0035628629
0.0027144055
0.0020048003
0.0014116929
0.00091622752
0.00050252802
0.00015725132
0.042653552
0.04295203
0.04364492
0.044617489
0.045484898
0.044950942
0.04339365
0.041762565
0.040239088
0.038579727
0.036541998
0.033785294
0.030243978
0.026488481
0.02276185
0.019259968
0.016112764
0.013351106
0.010966994
0.0089364062
0.0072219937
0.0057808196
0.0045719675
0.0035592759
0.0027116851
0.0020027982
0.0014102868
0.00091531628
0.00050202844
0.0001570949
0.042637712
0.042935517
0.043626825
0.044597082
0.045467949
0.044940312
0.04338281
0.041747275
0.040219944
0.038557692
0.036517483
0.03375878
0.030217329
0.026463364
0.022739063
0.019240186
0.016096028
0.013337184
0.010955578
0.0089271607
0.0072145774
0.0057749266
0.0045673371
0.0035556912
0.0027089666
0.0020007974
0.0014088816
0.00091440569
0.00050152923
0.00015693861
0.042621869
0.042919001
0.043608738
0.044576656
0.045450972
0.044929674
0.043372013
0.041732038
0.040200813
0.038535676
0.03649299
0.033732287
0.030190702
0.026438273
0.022716304
0.019220425
0.016079311
0.013323277
0.010944175
0.0089179266
0.0072071708
0.0057690417
0.0045627135
0.003552112
0.0027062523
0.0019987998
0.0014074787
0.00091349662
0.00050103086
0.00015678258
0.042606022
0.04290248
0.043590662
0.044556226
0.045433947
0.044919062
0.043361244
0.041716825
0.040181706
0.038513678
0.036468519
0.033705817
0.030164098
0.026413206
0.02269357
0.019200683
0.01606261
0.013309382
0.010932781
0.0089086987
0.0071997687
0.0057631591
0.0045580909
0.0035485331
0.002703538
0.0019968021
0.0014060756
0.00091258734
0.00050053236
0.00015662651
0.042590171
0.042885955
0.043572595
0.044535825
0.045416894
0.044908433
0.043350527
0.041701645
0.040162647
0.038491699
0.036444069
0.033679369
0.030137517
0.026388169
0.022670861
0.019180965
0.016045929
0.013295505
0.010921403
0.0088994849
0.0071923791
0.005757287
0.0045534771
0.0035449613
0.0027008293
0.0019948086
0.0014046755
0.00091168003
0.00050003494
0.00015647077
0.042574316
0.042869426
0.043554539
0.044515439
0.045399793
0.044897813
0.04333984
0.041686513
0.0401436
0.038469739
0.03641964
0.033652943
0.030110958
0.026363157
0.022648176
0.019161267
0.016029263
0.01328164
0.010910035
0.0088902778
0.0071849941
0.0057514183
0.0045488658
0.0035413914
0.002698122
0.0019928161
0.0014032762
0.00091077325
0.00049953784
0.00015631514
0.042558456
0.042852893
0.043536493
0.044495035
0.045382664
0.044887201
0.043329194
0.041671395
0.040124566
0.038447803
0.036395231
0.033626541
0.03008443
0.026338167
0.022625514
0.019141591
0.016012615
0.01326779
0.010898679
0.0088810823
0.0071776184
0.0057455574
0.004544261
0.0035378268
0.0026954189
0.0019908268
0.0014018791
0.00090986797
0.00049904156
0.00015615977
0.042542592
0.042836355
0.043518457
0.044474635
0.045365488
0.044876576
0.043318583
0.041656336
0.040105572
0.038425885
0.03637084
0.033600158
0.030057927
0.026313201
0.022602874
0.019121933
0.01599598
0.013253949
0.01088733
0.008871891
0.0071702448
0.0057396972
0.0045396561
0.0035342616
0.0026927149
0.0019888367
0.0014004814
0.0009089622
0.00049854499
0.00015600432
0.042526723
0.042819813
0.043500431
0.044454264
0.045348279
0.04486597
0.043308008
0.04164129
0.04008661
0.038403996
0.036346469
0.033573796
0.030031446
0.026288259
0.022580258
0.019102297
0.015979364
0.013240126
0.010875997
0.0088627136
0.0071628836
0.0057338478
0.0045350601
0.0035307037
0.0026900168
0.001986851
0.0013990868
0.00090805848
0.00049804954
0.00015584921
0.042510849
0.042803265
0.043482413
0.044433901
0.045331029
0.044855356
0.043297473
0.041626297
0.040067661
0.038382126
0.036322116
0.033547459
0.030004987
0.026263343
0.022557665
0.019082679
0.015962762
0.013226314
0.010864673
0.0088535422
0.0071555267
0.0057280016
0.0045304666
0.0035271477
0.0026873201
0.0019848664
0.001397693
0.00090715532
0.00049755444
0.00015569422
0.04249497
0.042786711
0.043464405
0.044413522
0.04531374
0.044844737
0.043286972
0.041611328
0.040048732
0.038360275
0.036297782
0.033521143
0.029978551
0.026238455
0.022535098
0.019063083
0.015946178
0.01321252
0.010853363
0.0088443822
0.0071481796
0.0057221642
0.0045258801
0.0035235974
0.0026846279
0.0019828852
0.0013963018
0.00090625378
0.00049706025
0.00015553951
0.042479086
0.042770153
0.043446404
0.044393151
0.045296418
0.04483414
0.04327652
0.041596399
0.040029848
0.038338441
0.036273466
0.033494845
0.029952137
0.026213592
0.022512555
0.019043506
0.015929608
0.013198736
0.01084206
0.0088352267
0.0071408349
0.0057163275
0.0045212933
0.0035200465
0.0026819349
0.0019809032
0.0013949097
0.00090535173
0.00049656576
0.00015538469
0.042463197
0.042753589
0.043428387
0.044372809
0.04527905
0.044823524
0.043266099
0.041581512
0.040010987
0.038316626
0.036249167
0.033468567
0.029925747
0.026188756
0.022490042
0.019023954
0.01591306
0.01318497
0.010830772
0.0088260854
0.0071335026
0.0057105017
0.0045167157
0.0035165031
0.0026792477
0.0019789257
0.0013935209
0.00090445174
0.0004960724
0.00015523023
0.042447303
0.042737019
0.043410379
0.044352473
0.045261657
0.044812916
0.043255718
0.041566645
0.039992139
0.038294829
0.036224886
0.033442306
0.02989938
0.026163946
0.022467551
0.019004421
0.015896528
0.013171215
0.010819492
0.0088169496
0.0071261742
0.0057046785
0.0045121402
0.0035129611
0.0026765615
0.0019769491
0.0013921326
0.00090355218
0.0004955793
0.00015507587
0.042431403
0.042720442
0.043392382
0.044332123
0.045244209
0.044802315
0.043245374
0.041551839
0.039973323
0.038273057
0.036200622
0.033416063
0.029873042
0.026139158
0.022445083
0.018984908
0.015880012
0.013157474
0.010808225
0.0088078246
0.007118855
0.0056988633
0.0045075715
0.0035094245
0.0026738797
0.0019749757
0.0013907468
0.00090265417
0.00049508706
0.00015492177
0.042415498
0.04270386
0.043374396
0.044311784
0.045226743
0.044791701
0.043235067
0.041537048
0.039954551
0.038251304
0.036176375
0.033389836
0.029846731
0.026114393
0.022422636
0.018965413
0.015863511
0.013143743
0.010796965
0.0087987032
0.0071115373
0.0056930481
0.0045030019
0.0035058867
0.0026711966
0.0019730012
0.00138936
0.00090175551
0.00049459443
0.00015476755
0.042399587
0.042687273
0.043356419
0.044291476
0.04520922
0.044781102
0.043224809
0.041522314
0.039935793
0.038229582
0.036152145
0.033363633
0.029820442
0.026089652
0.022400214
0.018945939
0.015847029
0.013130029
0.01078572
0.0087895959
0.0071042323
0.0056872438
0.0044984416
0.0035023565
0.0026685195
0.0019710312
0.0013879764
0.00090085895
0.00049410296
0.00015461368
0.042383671
0.042670681
0.043338453
0.044271171
0.045191679
0.044770498
0.043214582
0.041507599
0.039917055
0.038207879
0.036127933
0.033337447
0.029794174
0.026064933
0.022377813
0.018926485
0.015830562
0.013116326
0.010774483
0.0087804944
0.0070969315
0.0056814425
0.0044938835
0.003498828
0.0026658436
0.0019690622
0.0013865935
0.00089996293
0.00049361183
0.00015445993
0.042367749
0.042654084
0.043320496
0.044250856
0.045174083
0.044759885
0.043204401
0.041492938
0.039898363
0.038186195
0.036103738
0.033311278
0.029767928
0.026040242
0.022355436
0.018907053
0.015814112
0.013102638
0.010763259
0.0087714044
0.0070896408
0.0056756495
0.0044893324
0.0034953051
0.0026631723
0.0019670966
0.0013852132
0.00089906852
0.00049312159
0.00015430646
0.042351821
0.042637482
0.043302549
0.044230551
0.045156467
0.044749291
0.043194252
0.041478304
0.039879697
0.038164529
0.036079561
0.033285128
0.029741703
0.026015576
0.02233308
0.018887639
0.015797677
0.01308896
0.010752042
0.0087623183
0.0070823518
0.0056698568
0.0044847806
0.0034917812
0.0026604998
0.0019651299
0.0013838319
0.00089817349
0.00049263098
0.00015415287
0.042335887
0.042620873
0.043284611
0.044210277
0.045138796
0.044738681
0.043184143
0.041463712
0.039861045
0.038142882
0.0360554
0.033258999
0.029715497
0.025990932
0.02231075
0.018868246
0.01578126
0.013075299
0.01074084
0.0087532459
0.007075075
0.0056640746
0.0044802377
0.0034882645
0.002657833
0.0019631676
0.0013824538
0.00089728048
0.0004921415
0.00015399963
0.042319947
0.042604259
0.043266682
0.044190003
0.045121104
0.044728071
0.04317408
0.041449163
0.039842426
0.038121257
0.036031256
0.033232886
0.029689311
0.025966313
0.022288443
0.018848871
0.015764856
0.013061648
0.010729645
0.0087441788
0.0070678014
0.0056582946
0.0044756963
0.003484749
0.0026551671
0.001961206
0.0013810762
0.00089638787
0.00049165225
0.00015384647
0.042304
0.042587639
0.04324876
0.044169725
0.045103361
0.044717473
0.043164048
0.041434639
0.039823853
0.038099656
0.036007129
0.033206789
0.02966315
0.025941715
0.022266161
0.018829514
0.015748468
0.01304801
0.010718462
0.0087351219
0.0070605364
0.0056525219
0.0044711612
0.0034812385
0.0026525053
0.0019592475
0.0013797008
0.00089549671
0.00049116379
0.00015369356
0.042288047
0.042571011
0.043230826
0.044149455
0.045085591
0.044706857
0.043154066
0.041420175
0.039805294
0.038078078
0.035983018
0.033180707
0.029637016
0.025917138
0.022243898
0.018810176
0.015732093
0.013034382
0.010707285
0.0087260683
0.0070532728
0.0056467494
0.0044666252
0.0034777269
0.0026498422
0.0019572879
0.0013783245
0.00089460489
0.00049067496
0.00015354052
0.042272088
0.042554374
0.043212899
0.044129215
0.045067779
0.044696249
0.043144113
0.041405731
0.039786759
0.038056529
0.035958924
0.033154641
0.029610902
0.025892583
0.022221659
0.018790861
0.015715737
0.013020771
0.010696124
0.0087170286
0.0070460214
0.0056409876
0.0044620981
0.0034742225
0.002647185
0.0019553326
0.0013769513
0.00089371508
0.00049018722
0.00015338782
0.042256121
0.042537731
0.043194983
0.044108977
0.045049933
0.044685643
0.043134205
0.041391345
0.039768272
0.038035
0.035934849
0.033128591
0.029584808
0.02586805
0.022199442
0.018771565
0.015699396
0.013007171
0.010684971
0.0087079947
0.0070387742
0.0056352289
0.0044575732
0.0034707198
0.0026445291
0.0019533784
0.0013755788
0.00089282582
0.0004896998
0.00015323524
0.042240147
0.042521084
0.043177077
0.044088743
0.045032052
0.044675024
0.043124343
0.041376982
0.039749811
0.038013491
0.035910792
0.03310256
0.029558734
0.025843539
0.022177247
0.018752288
0.015683073
0.012993587
0.010673831
0.0086989717
0.0070315362
0.0056294778
0.0044530548
0.0034672223
0.0026418772
0.0019514272
0.0013742085
0.00089193799
0.00048921318
0.0001530829
0.042224167
0.042504431
0.043159181
0.044068511
0.04501413
0.044664416
0.043114511
0.041362674
0.039731367
0.037992003
0.035886752
0.033076547
0.029532679
0.025819054
0.022155073
0.01873303
0.015666765
0.012980015
0.010662698
0.0086899525
0.0070242998
0.0056237269
0.004448536
0.0034637238
0.0026392243
0.0019494749
0.0013728375
0.00089104958
0.00048872622
0.00015293045
0.042208181
0.042487774
0.043141296
0.04404831
0.044996182
0.044653802
0.043104731
0.041348394
0.039712966
0.037970536
0.03586273
0.03305055
0.029506643
0.025794592
0.022132921
0.018713792
0.015650476
0.012966459
0.010651581
0.0086809471
0.0070170752
0.0056179859
0.0044440253
0.0034602319
0.0026365766
0.0019475267
0.0013714693
0.00089016303
0.00048824028
0.00015277833
0.042192188
0.042471111
0.043123422
0.044028113
0.044978185
0.044643177
0.043094979
0.041334165
0.039694604
0.037949098
0.035838726
0.033024569
0.029480626
0.025770152
0.02211079
0.018694574
0.015634202
0.012952914
0.010640471
0.0086719473
0.0070098547
0.0056122475
0.0044395165
0.0034567415
0.00263393
0.0019455793
0.0013701018
0.00088927697
0.00048775461
0.00015262629
0.042176188
0.042454444
0.043105557
0.044007927
0.044960168
0.044632565
0.043085272
0.041319968
0.039676258
0.03792768
0.035814739
0.032998605
0.029454629
0.025745735
0.022088684
0.018675376
0.015617945
0.012939383
0.010629374
0.0086629576
0.0070026427
0.0056065163
0.0044350137
0.0034532559
0.0026312872
0.0019436348
0.0013687363
0.00088839226
0.00048726968
0.00015247448
0.042160181
0.04243777
0.043087701
0.043987734
0.044942096
0.044621939
0.043075614
0.041305818
0.039657944
0.037906296
0.03579077
0.03297266
0.029428658
0.025721338
0.022066598
0.018656194
0.015601701
0.012925861
0.010618283
0.0086539716
0.0069954323
0.0056007853
0.0044305102
0.0034497692
0.0026286432
0.0019416892
0.00136737
0.00088750693
0.00048678438
0.00015232255
0.042144167
0.042421091
0.043069855
0.043967571
0.044924012
0.044611308
0.043065983
0.041291709
0.039639679
0.037884934
0.035766819
0.032946731
0.029402708
0.025696962
0.022044539
0.018637033
0.015585475
0.012912356
0.010607207
0.0086449992
0.0069882338
0.0055950645
0.0044260152
0.0034462895
0.0026260047
0.0019397477
0.0013660066
0.00088662353
0.00048630014
0.00015217096
0.042128147
0.042404407
0.043052018
0.043947417
0.044905865
0.044600685
0.043056403
0.041277637
0.039621434
0.037863594
0.035742887
0.032920818
0.029376777
0.025672606
0.0220225
0.018617889
0.015569263
0.012898861
0.010596138
0.0086360319
0.006981039
0.0055893463
0.0044215223
0.0034428115
0.0026233674
0.0019378072
0.0013646439
0.00088574062
0.00048581619
0.00015201946
0.042112119
0.042387716
0.043034178
0.043927282
0.044887713
0.044590047
0.043046857
0.041263616
0.039603216
0.037842275
0.035718973
0.032894919
0.029350864
0.02564827
0.022000481
0.018598764
0.015553067
0.01288538
0.010585082
0.0086270749
0.0069738529
0.0055836354
0.0044170353
0.0034393385
0.002620734
0.0019358696
0.0013632833
0.0008848591
0.00048533301
0.00015186821
0.042096084
0.042371021
0.043016336
0.043907129
0.044869493
0.044579407
0.043037347
0.041249623
0.039585045
0.037820979
0.035695077
0.032869036
0.029324969
0.025623953
0.021978483
0.018579658
0.015536884
0.012871909
0.010574032
0.0086181212
0.0069666678
0.0055779242
0.0044125473
0.003435864
0.0026180991
0.0019339306
0.0013619217
0.00088397683
0.0004848494
0.00015171681
0.042080043
0.042354321
0.042998505
0.043887007
0.044851274
0.044568771
0.043027895
0.04123569
0.039566904
0.037799713
0.0356712
0.032843168
0.029299092
0.025599662
0.021956506
0.018560575
0.01552072
0.012858454
0.010562996
0.008609181
0.0069594948
0.0055722234
0.0044080679
0.0034323966
0.00261547
0.001931996
0.0013605631
0.00088309656
0.00048436688
0.00015156576
0.042063994
0.042337615
0.042980685
0.043866901
0.044832983
0.04455812
0.043018464
0.041221784
0.039548784
0.03777847
0.035647343
0.032817319
0.029273232
0.025575393
0.021934549
0.018541508
0.015504569
0.012845009
0.010551968
0.0086002455
0.0069523248
0.0055665246
0.00440359
0.0034289302
0.0026128416
0.0019300619
0.001359205
0.00088221665
0.00048388457
0.00015141477
0.042047938
0.042320904
0.042962875
0.04384681
0.044814692
0.044547469
0.043009085
0.041207934
0.03953071
0.037757263
0.035623504
0.032791487
0.029247391
0.025551144
0.021912614
0.01852246
0.015488435
0.012831579
0.010540952
0.0085913205
0.0069451637
0.0055608333
0.0043991183
0.0034254689
0.0026102172
0.0019281309
0.0013578491
0.00088133816
0.00048340304
0.00015126404
0.042031874
0.042304188
0.042945076
0.043826714
0.044796335
0.044536817
0.042999748
0.041194114
0.039512675
0.03773608
0.035599685
0.03276567
0.029221573
0.025526918
0.021890698
0.01850343
0.015472314
0.012818158
0.010529942
0.0085823988
0.0069380037
0.0055551419
0.0043946453
0.0034220058
0.002607591
0.0019261983
0.001356492
0.00088045882
0.00048292102
0.00015111314
0.042015804
0.042287466
0.042927287
0.043806635
0.044777973
0.04452615
0.042990439
0.04118035
0.039494659
0.037714921
0.035575886
0.03273987
0.029195781
0.025502714
0.021868807
0.018484421
0.015456213
0.012804756
0.010518949
0.0085734917
0.0069308565
0.0055494616
0.0043901815
0.0034185504
0.0026049708
0.0019242703
0.0013551381
0.00087958158
0.00048244015
0.0001509626
0.041999725
0.042270737
0.042909509
0.043786583
0.04475955
0.044515484
0.042981186
0.041166617
0.039476682
0.037693785
0.035552107
0.032714089
0.029170007
0.02547853
0.021846938
0.018465431
0.015440127
0.012791363
0.010507962
0.0085645891
0.0069237121
0.0055437832
0.0043857189
0.0034150958
0.0026023512
0.0019223427
0.0013537846
0.00087870465
0.00048195947
0.00015081213
0.041983639
0.042254002
0.042891741
0.043766534
0.044741118
0.044504814
0.042971963
0.041152937
0.039458755
0.037672673
0.035528348
0.032688327
0.029144251
0.025454364
0.021825092
0.01844646
0.015424057
0.012777983
0.010496988
0.0085556967
0.0069165766
0.0055381122
0.0043812627
0.0034116464
0.0025997358
0.0019204183
0.0013524334
0.00087782921
0.00048147962
0.00015066192
0.041967545
0.042237261
0.042873983
0.043746502
0.044722631
0.044494128
0.042962776
0.041139291
0.039440845
0.037651593
0.035504607
0.03266258
0.029118511
0.025430216
0.021803265
0.018427504
0.015407999
0.012764612
0.010486018
0.0085468064
0.0069094412
0.0055324401
0.0043768046
0.0034081948
0.0025971184
0.0019184922
0.0013510808
0.00087695282
0.00048099922
0.00015051153
0.041951443
0.042220515
0.042856235
0.043726467
0.044704129
0.044483443
0.042953648
0.041125696
0.039422971
0.037630538
0.035480888
0.032636849
0.029092789
0.025406089
0.021781459
0.018408568
0.01539196
0.01275126
0.010475063
0.0085379301
0.0069023183
0.0055267784
0.0043723553
0.0034047505
0.0025945067
0.0019165704
0.0013497313
0.00087607844
0.00048051991
0.00015036148
0.041935333
0.042203764
0.042838492
0.043706464
0.044685577
0.044472751
0.042944539
0.041112139
0.039405148
0.037609522
0.035457189
0.032611135
0.029067085
0.025381984
0.021759674
0.018389649
0.015375935
0.012737918
0.010464116
0.0085290585
0.006895198
0.0055211184
0.0043679071
0.0034013069
0.0025918954
0.0019146489
0.0013483821
0.00087520425
0.00048004074
0.00015021148
0.041919215
0.042187006
0.042820749
0.043686465
0.044667008
0.044462044
0.042935481
0.041098631
0.039387347
0.03758853
0.035433512
0.032585438
0.0290414
0.025357903
0.021737909
0.01837075
0.015359928