/*--------------------------------*- C++ -*----------------------------------*\
| =========                 |                                                 |
| \\      /  F ield         | OpenFOAM: The Open Source CFD Toolbox           |
|  \\    /   O peration     | Version:  v2012                                 |
|   \\  /    A nd           | Website:  www.openfoam.com                      |
|    \\/     M anipulation  |                                                 |
\*---------------------------------------------------------------------------*/
FoamFile
{
    version     2.0;
    format      ascii;
    class       volScalarField;
    location    "500";
    object      nut;
}
// * * * * * * * * * * * * * * * * * * * * * * * * * * * * * * * * * * * * * //

dimensions      [0 2 -1 0 0 0 0];


internalField   nonuniform List<scalar> 
24000
(
3.482267e-05
1.0713414e-05
7.2765552e-06
5.1050781e-06
6.8970616e-06
9.4257249e-06
1.0573508e-05
1.0854588e-05
1.029338e-05
9.6410093e-06
7.7810454e-06
4.2170599e-06
2.9450072e-06
2.1309004e-06
1.3385383e-06
8.4693422e-07
5.1447585e-07
2.6901937e-07
1.1144228e-07
3.9925613e-08
1.2741928e-08
3.6984051e-09
9.8105945e-10
2.348481e-10
4.9180673e-11
8.5564621e-12
1.183346e-12
1.9204113e-13
1.2261429e-13
1.3080734e-13
3.4842121e-05
1.056112e-05
7.1542741e-06
5.0676991e-06
6.8753707e-06
9.4053964e-06
1.0566865e-05
1.0845259e-05
1.0290842e-05
9.6395573e-06
7.7744195e-06
4.2145573e-06
2.941597e-06
2.1253347e-06
1.3362098e-06
8.4607156e-07
5.141795e-07
2.6884566e-07
1.1137286e-07
3.9900049e-08
1.2733788e-08
3.6962177e-09
9.8056195e-10
2.347539e-10
4.9167623e-11
8.5566804e-12
1.1851762e-12
1.9407718e-13
1.2484284e-13
1.3313742e-13
3.4864514e-05
1.0674812e-05
7.2990333e-06
5.1286134e-06
6.8603826e-06
9.3589431e-06
1.0516333e-05
1.080173e-05
1.0246436e-05
9.5926311e-06
7.7623358e-06
4.2086991e-06
2.9370898e-06
2.1205009e-06
1.3337771e-06
8.4481754e-07
5.1344533e-07
2.6858983e-07
1.1129544e-07
3.9881473e-08
1.2730048e-08
3.6955597e-09
9.804649e-10
2.3474455e-10
4.9167578e-11
8.5563385e-12
1.184396e-12
1.9314743e-13
1.2381024e-13
1.3205527e-13
3.4888963e-05
1.0729071e-05
7.3498803e-06
5.150211e-06
6.8465093e-06
9.3286705e-06
1.0488462e-05
1.0775321e-05
1.0219227e-05
9.5635513e-06
7.7477528e-06
4.2010783e-06
2.9321635e-06
2.1155245e-06
1.3310669e-06
8.4328327e-07
5.1248235e-07
2.6792248e-07
1.1097981e-07
3.975758e-08
1.2688432e-08
3.6832102e-09
9.7717174e-10
2.339589e-10
4.9004671e-11
8.5287701e-12
1.181189e-12
1.9322407e-13
1.2418481e-13
1.3244539e-13
3.4915385e-05
1.078276e-05
7.3915531e-06
5.1615164e-06
6.8330602e-06
9.3029066e-06
1.046217e-05
1.0748881e-05
1.0192601e-05
9.5355407e-06
7.7313196e-06
4.1922536e-06
2.9269705e-06
2.1102281e-06
1.32811e-06
8.415925e-07
5.1144776e-07
2.6729421e-07
1.1070728e-07
3.9658451e-08
1.2656999e-08
3.674251e-09
9.7484932e-10
2.3341619e-10
4.8893588e-11
8.5098615e-12
1.1786421e-12
1.9283531e-13
1.2394794e-13
1.3219391e-13
3.4943782e-05
1.0824074e-05
7.4203883e-06
5.1692304e-06
6.8198672e-06
9.2789717e-06
1.0436931e-05
1.0723568e-05
1.0167756e-05
9.5094014e-06
7.7137595e-06
4.1826288e-06
2.9215821e-06
2.1048974e-06
1.3250682e-06
8.3980329e-07
5.1032e-07
2.6655711e-07
1.1037283e-07
3.9531968e-08
1.2615642e-08
3.6621893e-09
9.7166767e-10
2.326624e-10
4.8737719e-11
8.4832309e-12
1.1751837e-12
1.9246988e-13
1.2382085e-13
1.3205698e-13
3.4974155e-05
1.0857835e-05
7.4434961e-06
5.1760058e-06
6.8068495e-06
9.2558254e-06
1.0412196e-05
1.0698872e-05
1.0143814e-05
9.4843689e-06
7.6954881e-06
4.1725128e-06
2.9160823e-06
2.0994724e-06
1.3219389e-06
8.379438e-07
5.0914436e-07
2.6579146e-07
1.100265e-07
3.9401449e-08
1.257308e-08
3.6497965e-09
9.6840163e-10
2.3188892e-10
4.8577768e-11
8.4558601e-12
1.1715828e-12
1.9203875e-13
1.2362836e-13
1.3185097e-13
3.500652e-05
1.0886228e-05
7.4633511e-06
5.1823055e-06
6.7939711e-06
9.2328335e-06
1.03878e-05
1.0674642e-05
1.01204e-05
9.4599787e-06
7.6767684e-06
4.1620801e-06
2.9105101e-06
2.0940121e-06
1.3187646e-06
8.3604217e-07
5.0793582e-07
2.6499717e-07
1.0966555e-07
3.9264944e-08
1.2528448e-08
3.6367751e-09
9.6496465e-10
2.3107394e-10
4.8409063e-11
8.4269668e-12
1.1677798e-12
1.9158465e-13
1.2342673e-13
1.3163515e-13
3.50409e-05
1.0911297e-05
7.4815579e-06
5.1884658e-06
6.7812092e-06
9.2099226e-06
1.0363606e-05
1.0650723e-05
1.0097324e-05
9.4360157e-06
7.6577658e-06
4.151447e-06
2.9048937e-06
2.088527e-06
1.31556e-06
8.3411323e-07
5.0670734e-07
2.6418785e-07
1.0929744e-07
3.9125651e-08
1.2482884e-08
3.623477e-09
9.6145337e-10
2.3024108e-10
4.8236598e-11
8.3974148e-12
1.1638821e-12
1.9111143e-13
1.2321084e-13
1.3140419e-13
3.5077321e-05
1.0934367e-05
7.498932e-06
5.1946373e-06
6.7685515e-06
9.1870716e-06
1.0339537e-05
1.0627004e-05
1.0074464e-05
9.4122216e-06
7.6385858e-06
4.1406858e-06
2.8992493e-06
2.0830303e-06
1.3123375e-06
8.3216685e-07
5.0546587e-07
2.633683e-07
1.0892433e-07
3.8984372e-08
1.2436647e-08
3.6099761e-09
9.5788725e-10
2.2939495e-10
4.8061333e-11
8.3673729e-12
1.1599158e-12
1.9062659e-13
1.2298727e-13
1.3116505e-13
3.5115813e-05
1.0956297e-05
7.5159221e-06
5.2008916e-06
6.7559867e-06
9.1642827e-06
1.0315558e-05
1.0603424e-05
1.0051757e-05
9.3886583e-06
7.6192985e-06
4.1298435e-06
2.8935875e-06
2.0775282e-06
1.3091042e-06
8.3020935e-07
5.0421638e-07
2.6254284e-07
1.0854846e-07
3.8842027e-08
1.2390055e-08
3.5963698e-09
9.5429281e-10
2.2854199e-10
4.7884637e-11
8.3370804e-12
1.1559135e-12
1.9013439e-13
1.2275818e-13
1.3092004e-13
3.5156405e-05
1.0977608e-05
7.5327661e-06
5.2072634e-06
6.7435104e-06
9.1415572e-06
1.029165e-05
1.0579944e-05
1.0029163e-05
9.3653273e-06
7.5999485e-06
4.1189507e-06
2.8879147e-06
2.0720255e-06
1.3058644e-06
8.2824451e-07
5.0296166e-07
2.6171374e-07
1.0817092e-07
3.8699047e-08
1.2343252e-08
3.5827008e-09
9.5068148e-10
2.2768495e-10
4.7707078e-11
8.3066362e-12
1.1518889e-12
1.8963727e-13
1.2252521e-13
1.3067091e-13
3.5199127e-05
1.0998603e-05
7.5495835e-06
5.213769e-06
6.7311154e-06
9.1188973e-06
1.02678e-05
1.0556537e-05
1.0006657e-05
9.3421289e-06
7.5805649e-06
4.1080276e-06
2.882235e-06
2.0665246e-06
1.3026214e-06
8.2627501e-07
5.0170378e-07
2.6088271e-07
1.0779259e-07
3.85558e-08
1.2296366e-08
3.5690082e-09
9.4706397e-10
2.2682645e-10
4.7529215e-11
8.2761384e-12
1.1478557e-12
1.8913748e-13
1.2228981e-13
1.3041921e-13
3.5244005e-05
1.1019455e-05
7.5664348e-06
5.2204139e-06
6.7187967e-06
9.0963012e-06
1.0243998e-05
1.0533186e-05
9.9842256e-06
9.3190207e-06
7.5611679e-06
4.0970875e-06
2.8765509e-06
2.0610272e-06
1.2993767e-06
8.2430221e-07
5.0044366e-07
2.6005052e-07
1.0741384e-07
3.8412411e-08
1.2249437e-08
3.5553029e-09
9.4344298e-10
2.2596708e-10
4.7351167e-11
8.245607e-12
1.1438169e-12
1.8863576e-13
1.2205263e-13
1.3016562e-13
3.5291066e-05
1.1040265e-05
7.5833475e-06
5.2271977e-06
6.7065635e-06
9.0737664e-06
1.0220237e-05
1.0509883e-05
9.9618583e-06
9.2959817e-06
7.5417721e-06
4.0861398e-06
2.8708642e-06
2.0555339e-06
1.2961315e-06
8.2232733e-07
4.9918231e-07
2.5921807e-07
1.0703513e-07
3.8269088e-08
1.2202539e-08
3.5416079e-09
9.3982488e-10
2.2510843e-10
4.717327e-11
8.2151013e-12
1.1397806e-12
1.8813335e-13
1.2181438e-13
1.299109e-13
3.5340333e-05
1.1061087e-05
7.6003342e-06
5.2341161e-06
6.6943701e-06
9.0513045e-06
1.0196519e-05
1.0486623e-05
9.9395489e-06
9.273001e-06
7.5223879e-06
4.0751911e-06
2.8651761e-06
2.0500453e-06
1.2928865e-06
8.2035078e-07
4.9791999e-07
2.5838563e-07
1.0665661e-07
3.8125874e-08
1.2155683e-08
3.5279264e-09
9.3621045e-10
2.2425066e-10
4.6995554e-11
8.1846259e-12
1.1357475e-12
1.8763039e-13
1.2157518e-13
1.2965519e-13
3.5391826e-05
1.1081948e-05
7.617381e-06
5.2411763e-06
6.6823107e-06
9.0288904e-06
1.0172826e-05
1.0463397e-05
9.9172882e-06
9.2500702e-06
7.5030229e-06
4.064246e-06
2.8594873e-06
2.0445619e-06
1.2896424e-06
8.1837318e-07
4.9665722e-07
2.5755361e-07
1.0627848e-07
3.7982872e-08
1.2108909e-08
3.5142706e-09
9.3260309e-10
2.233946e-10
4.6818202e-11
8.1542137e-12
1.1317223e-12
1.8712782e-13
1.2133572e-13
1.2939921e-13
3.5445565e-05
1.1102859e-05
7.6344873e-06
5.2483755e-06
6.6612445e-06
9.0065231e-06
1.0149155e-05
1.0440199e-05
9.8950713e-06
9.2271853e-06
7.4836836e-06
4.053308e-06
2.8537981e-06
2.039084e-06
1.2863993e-06
8.1639454e-07
4.9539391e-07
2.5672197e-07
1.059007e-07
3.7840043e-08
1.2062199e-08
3.5006342e-09
9.2900092e-10
2.2253977e-10
4.6641102e-11
8.1238439e-12
1.1277023e-12
1.8662544e-13
1.2109602e-13
1.2914299e-13
3.5501564e-05
1.1123831e-05
7.6516472e-06
5.2557104e-06
6.6391431e-06
8.9842024e-06
1.0125506e-05
1.041703e-05
9.8728972e-06
9.2043463e-06
7.4643746e-06
4.0423799e-06
2.8481087e-06
2.0336113e-06
1.2831572e-06
8.144152e-07
4.9413045e-07
2.5589109e-07
1.0552351e-07
3.7697496e-08
1.2015593e-08
3.4870304e-09
9.2540761e-10
2.2168709e-10
4.6464452e-11
8.093552e-12
1.1236923e-12
1.8612388e-13
1.2085641e-13
1.2888687e-13
3.5559836e-05
1.1144863e-05
7.668851e-06
5.2631785e-06
6.6171631e-06
8.961928e-06
1.0101879e-05
1.0393889e-05
9.8507634e-06
9.181552e-06
7.4450996e-06
4.031463e-06
2.8424191e-06
2.0281436e-06
1.2799162e-06
8.1243507e-07
4.928667e-07
2.5506092e-07
1.0514684e-07
3.7555202e-08
1.196908e-08
3.4734546e-09
9.2182182e-10
2.2083619e-10
4.6288171e-11
8.0633229e-12
1.1196901e-12
1.8562283e-13
1.2061669e-13
1.2863065e-13
3.5620391e-05
1.1165945e-05
7.6860939e-06
5.2707786e-06
6.5953058e-06
8.9397014e-06
1.0078266e-05
1.037077e-05
9.8286692e-06
9.1588027e-06
7.4258632e-06
4.0205585e-06
2.8367294e-06
2.0226812e-06
1.2766764e-06
8.1045443e-07
4.9160294e-07
2.5423166e-07
1.0477084e-07
3.7413226e-08
1.1922683e-08
3.4599152e-09
9.182459e-10
2.1998768e-10
4.6112391e-11
8.0331801e-12
1.1156993e-12
1.8512296e-13
1.2037736e-13
1.2837487e-13
3.5683235e-05
1.1187066e-05
7.703372e-06
5.2785088e-06
6.5735688e-06
8.9175232e-06
1.0054668e-05
1.0347673e-05
9.8066157e-06
9.1360996e-06
7.4066623e-06
4.0096667e-06
2.8310393e-06
2.0172239e-06
1.2734375e-06
8.0847289e-07
4.9033879e-07
2.5340303e-07
1.0439532e-07
3.7271478e-08
1.1876369e-08
3.4464003e-09
9.1467647e-10
2.1914068e-10
4.5936919e-11
8.0030897e-12
1.1117152e-12
1.8462375e-13
1.2013822e-13
1.281193e-13
3.5748373e-05
1.1208203e-05
7.7206766e-06
5.286368e-06
6.5519477e-06
8.8953935e-06
1.0031086e-05
1.0324602e-05
9.7846039e-06
9.1134432e-06
7.3875057e-06
3.9987884e-06
2.825349e-06
2.0117714e-06
1.2701996e-06
8.0649066e-07
4.8907451e-07
2.5257528e-07
1.0402045e-07
3.713004e-08
1.1830168e-08
3.4329207e-09
9.111166e-10
2.1829599e-10
4.5761928e-11
7.973082e-12
1.1077419e-12
1.8412568e-13
1.1989947e-13
1.2786417e-13
3.5815803e-05
1.1229333e-05
7.7379987e-06
5.2943551e-06
6.5304434e-06
8.8733144e-06
1.0007521e-05
1.0301555e-05
9.762634e-06
9.0908332e-06
7.3683886e-06
3.9879235e-06
2.8196585e-06
2.0063236e-06
1.2669625e-06
8.0450748e-07
4.878098e-07
2.5174822e-07
1.0364611e-07
3.6988856e-08
1.178406e-08
3.4194688e-09
9.0756411e-10
2.1745303e-10
4.5587293e-11
7.9431344e-12
1.1037762e-12
1.8362828e-13
1.1966084e-13
1.2760917e-13
3.5885522e-05
1.1250451e-05
7.7553334e-06
5.3024676e-06
6.509057e-06
8.8512858e-06
9.9839667e-06
1.0278529e-05
9.7407036e-06
9.0682694e-06
7.3493051e-06
3.9770717e-06
2.8139677e-06
2.0008809e-06
1.2637264e-06
8.0252359e-07
4.865449e-07
2.5092201e-07
1.0327241e-07
3.6847979e-08
1.1738065e-08
3.4060522e-09
9.0402114e-10
2.1661236e-10
4.5413136e-11
7.9132691e-12
1.0998214e-12
1.831322e-13
1.1942281e-13
1.2735482e-13
3.5957525e-05
1.1271553e-05
7.7726767e-06
5.3107031e-06
6.4877865e-06
8.8293077e-06
9.9604219e-06
1.0255522e-05
9.7188091e-06
9.0457506e-06
7.3302562e-06
3.9662329e-06
2.8082765e-06
1.9954432e-06
1.2604913e-06
8.0053861e-07
4.8527942e-07
2.5009633e-07
1.0289914e-07
3.6707309e-08
1.1692144e-08
3.3926575e-09
9.0048391e-10
2.1577301e-10
4.5239244e-11
7.8834482e-12
1.0958724e-12
1.8263684e-13
1.1918514e-13
1.2710087e-13
3.6031801e-05
1.1292625e-05
7.7900176e-06
5.3190585e-06
6.4666311e-06
8.8073793e-06
9.9368885e-06
1.0232538e-05
9.6969511e-06
9.0232769e-06
7.311243e-06
3.9554069e-06
2.8025849e-06
1.9900104e-06
1.257257e-06
7.9855281e-07
4.8401366e-07
2.4927148e-07
1.025265e-07
3.6566941e-08
1.1646334e-08
3.3792969e-09
8.9695584e-10
2.1493585e-10
4.5065805e-11
7.8537048e-12
1.0919336e-12
1.8214272e-13
1.1894803e-13
1.2684754e-13
3.6108337e-05
1.1313659e-05
7.8073476e-06
5.3275301e-06
6.4455962e-06
8.7854853e-06
9.913369e-06
1.0209584e-05
9.6751314e-06
9.0008496e-06
7.2922662e-06
3.9445932e-06
2.7968928e-06
1.9845824e-06
1.2540236e-06
7.9656594e-07
4.8274738e-07
2.484473e-07
1.0215437e-07
3.6426817e-08
1.1600612e-08
3.3659625e-09
8.9343462e-10
2.1410027e-10
4.4892686e-11
7.8240148e-12
1.0880015e-12
1.8164927e-13
1.1871114e-13
1.2659445e-13
3.6187116e-05
1.1334658e-05
7.8246693e-06
5.3361155e-06
6.4246839e-06
8.7636152e-06
9.889869e-06
1.0186658e-05
9.6533482e-06
8.9784691e-06
7.2733264e-06
3.9337912e-06
2.7912002e-06
1.9791598e-06
1.2507912e-06
7.9457828e-07
4.8148083e-07
2.4762394e-07
1.0178286e-07
3.6286993e-08
1.1554999e-08
3.3526618e-09
8.8992246e-10
2.1326686e-10
4.4720013e-11
7.7944007e-12
1.0840794e-12
1.8115712e-13
1.1847491e-13
1.2634207e-13
3.6268118e-05
1.1355626e-05
7.841983e-06
5.3448132e-06
6.4038947e-06
8.741765e-06
9.8663911e-06
1.0163762e-05
9.6316021e-06
8.9561352e-06
7.2544239e-06
3.9229997e-06
2.785507e-06
1.9737423e-06
1.2475596e-06
7.9258942e-07
4.8021357e-07
2.4680104e-07
1.0141175e-07
3.6147356e-08
1.1509453e-08
3.3393804e-09
8.8641519e-10
2.1243453e-10
4.4547553e-11
7.7648213e-12
1.0801618e-12
1.8066561e-13
1.1823906e-13
1.2609012e-13
3.6351319e-05
1.1376558e-05
7.8592765e-06
5.3536193e-06
6.3832251e-06
8.7199283e-06
9.8429474e-06
1.0140903e-05
9.6098953e-06
8.9338502e-06
7.235559e-06
3.9122179e-06
2.7798134e-06
1.9683301e-06
1.2443289e-06
7.9059965e-07
4.7894593e-07
2.459789e-07
1.0104122e-07
3.6008002e-08
1.146401e-08
3.3261305e-09
8.8291631e-10
2.1160419e-10
4.4375498e-11
7.7353106e-12
1.0762532e-12
1.8017525e-13
1.180038e-13
1.258388e-13
3.6436692e-05
1.1397445e-05
7.8765412e-06
5.3625297e-06
6.3626728e-06
8.6981038e-06
9.8195388e-06
1.0118081e-05
9.588229e-06
8.9116157e-06
7.2167322e-06
3.9014447e-06
2.7741197e-06
1.9629232e-06
1.2410989e-06
7.8860868e-07
4.7767761e-07
2.4515732e-07
1.0067115e-07
3.5868863e-08
1.1418644e-08
3.3129032e-09
8.7942327e-10
2.1077517e-10
4.4203704e-11
7.7058422e-12
1.0723499e-12
1.7968543e-13
1.1776871e-13
1.2558769e-13
3.6524206e-05
1.1418272e-05
7.8937776e-06
5.3715434e-06
6.3422392e-06
8.6762906e-06
9.796162e-06
1.0095296e-05
9.5666009e-06
8.8894309e-06
7.1979442e-06
3.8906791e-06
2.7684261e-06
1.9575223e-06
1.2378702e-06
7.8661687e-07
4.7640891e-07
2.4433644e-07
1.0030163e-07
3.573e-08
1.1373379e-08
3.2997069e-09
8.7593846e-10
2.0994809e-10
4.4032307e-11
7.6764411e-12
1.0684555e-12
1.7919685e-13
1.1753434e-13
1.2533734e-13
3.6613826e-05
1.1439014e-05
7.9109815e-06
5.3806607e-06
6.321927e-06
8.6544888e-06
9.7728142e-06
1.0072543e-05
9.545006e-06
8.8672936e-06
7.179195e-06
3.8799193e-06
2.7627326e-06
1.9521277e-06
1.2346425e-06
7.8462384e-07
4.7513938e-07
2.4351592e-07
9.9932445e-08
3.5591292e-08
1.1328169e-08
3.286526e-09
8.7245741e-10
2.0912181e-10
4.3861059e-11
7.6470627e-12
1.0645639e-12
1.7870883e-13
1.1730039e-13
1.2508746e-13
3.6705516e-05
1.1459655e-05
7.9281412e-06
5.3898786e-06
6.3017334e-06
8.6326977e-06
9.7494974e-06
1.0049824e-05
9.523445e-06
8.8452049e-06
7.1604856e-06
3.8691643e-06
2.7570398e-06
1.9467395e-06
1.2314162e-06
7.8263006e-07
4.738695e-07
2.4269615e-07
9.956383e-08
3.5452859e-08
1.1283058e-08
3.2733752e-09
8.6898434e-10
2.082974e-10
4.3690188e-11
7.6177478e-12
1.0606806e-12
1.7822194e-13
1.1706707e-13
1.2483827e-13
3.6799233e-05
1.1480191e-05
7.9452499e-06
5.3991914e-06
6.2816542e-06
8.6109157e-06
9.726213e-06
1.0027139e-05
9.5019196e-06
8.8231662e-06
7.1418165e-06
3.8584122e-06
2.7513479e-06
1.9413577e-06
1.2281913e-06
7.8063532e-07
4.7259898e-07
2.4187694e-07
9.9195655e-08
3.5314632e-08
1.1238019e-08
3.2602452e-09
8.6551644e-10
2.0747413e-10
4.3519534e-11
7.5884668e-12
1.0568014e-12
1.7773548e-13
1.1683393e-13
1.2458927e-13
3.6894934e-05
1.1500617e-05
7.9623079e-06
5.4085961e-06
6.2616918e-06
8.5891429e-06
9.702957e-06
1.0004486e-05
9.4804283e-06
8.8011775e-06
7.1231884e-06
3.8476611e-06
2.7456574e-06
1.9359834e-06
1.2249683e-06
7.7864011e-07
4.7132826e-07
2.4105855e-07
9.8828077e-08
3.5176688e-08
1.1193083e-08
3.2471462e-09
8.6205677e-10
2.0665278e-10
4.3349269e-11
7.5592509e-12
1.0529308e-12
1.7725025e-13
1.1660153e-13
1.2434107e-13
3.6992571e-05
1.1520925e-05
7.9793097e-06
5.4180906e-06
6.2418474e-06
8.56738e-06
9.6797291e-06
9.9818661e-06
9.4589709e-06
8.7792387e-06
7.1046017e-06
3.8369086e-06
2.7399687e-06
1.9306164e-06
1.221747e-06
7.7664398e-07
4.7005684e-07
2.4024056e-07
9.8460826e-08
3.5038894e-08
1.1148196e-08
3.2340607e-09
8.5860018e-10
2.0583203e-10
4.3179105e-11
7.5300489e-12
1.0490618e-12
1.7676545e-13
1.1636951e-13
1.240933e-13
3.7092092e-05
1.1541107e-05
7.9962445e-06
5.4276714e-06
6.2221171e-06
8.5456264e-06
9.6565314e-06
9.9592799e-06
9.4375493e-06
8.7573527e-06
7.0860573e-06
3.8261525e-06
2.7342828e-06
1.9252572e-06
1.2185276e-06
7.7464744e-07
4.6878524e-07
2.3942339e-07
9.809417e-08
3.4901378e-08
1.110341e-08
3.2210051e-09
8.5515143e-10
2.050131e-10
4.3009306e-11
7.5009074e-12
1.0452006e-12
1.7628173e-13
1.1613812e-13
1.2384621e-13
3.7193444e-05
1.1561163e-05
8.0131075e-06
5.4373335e-06
6.2024973e-06
8.5238807e-06
9.6333639e-06
9.936727e-06
9.4161635e-06
8.7355204e-06
7.0675559e-06
3.8153903e-06
2.7286004e-06
1.9199056e-06
1.2153102e-06
7.7265021e-07
4.6751314e-07
2.3860683e-07
9.7727951e-08
3.4764061e-08
1.1058692e-08
3.2079688e-09
8.5170736e-10
2.0419517e-10
4.2839691e-11
7.4717935e-12
1.0413426e-12
1.7579829e-13
1.1590681e-13
1.2359923e-13
3.729657e-05
1.1581097e-05
8.0298977e-06
5.4470735e-06
6.1829886e-06
8.5021419e-06
9.6102228e-06
9.914205e-06
9.39481e-06
8.7137405e-06
7.0490986e-06
3.804619e-06
2.7229226e-06
1.9145626e-06
1.2120952e-06
7.7065289e-07
4.6624103e-07
2.3779113e-07
9.7362339e-08
3.462703e-08
1.1014076e-08
3.1949633e-09
8.4827143e-10
2.0337914e-10
4.2670456e-11
7.4427429e-12
1.0374928e-12
1.753161e-13
1.1567628e-13
1.2335308e-13
3.7401409e-05
1.1600906e-05
8.0466078e-06
5.4568893e-06
6.1635914e-06
8.4804088e-06
9.5871056e-06
9.8917124e-06
9.3734849e-06
8.6920118e-06
7.0306863e-06
3.7938361e-06
2.7172502e-06
1.9092282e-06
1.2088826e-06
7.6865505e-07
4.6496841e-07
2.3697588e-07
9.6997055e-08
3.449014e-08
1.0969506e-08
3.1819698e-09
8.4483809e-10
2.0256357e-10
4.250129e-11
7.4136998e-12
1.0336438e-12
1.7483425e-13
1.1544614e-13
1.2310736e-13
3.7507899e-05
1.1620576e-05
8.0632258e-06
5.4667773e-06
6.1443009e-06
8.4586799e-06
9.5640146e-06
9.8692499e-06
9.352189e-06
8.6703351e-06
7.0123206e-06
3.7830413e-06
2.7115843e-06
1.9039027e-06
1.2056727e-06
7.6665732e-07
4.6369592e-07
2.3616161e-07
9.663242e-08
3.4353547e-08
1.0925041e-08
3.1690074e-09
8.4141286e-10
2.0174987e-10
4.2332497e-11
7.3847182e-12
1.0298027e-12
1.7435353e-13
1.1521666e-13
1.2286235e-13
3.7615974e-05
1.1640081e-05
8.0797466e-06
5.4767336e-06
6.1251183e-06
8.4369548e-06
9.5409496e-06
9.8468165e-06
9.330923e-06
8.6486952e-06
6.9939939e-06
3.7722759e-06
2.7059259e-06
1.8985861e-06
1.2024655e-06
7.6465946e-07
4.6242324e-07
2.353481e-07
9.6268282e-08
3.421717e-08
1.0880649e-08
3.1560652e-09
8.3799249e-10
2.0093719e-10
4.2163887e-11
7.3557636e-12
1.0259646e-12
1.7387306e-13
1.1498726e-13
1.2261744e-13
3.7725566e-05
1.1659401e-05
8.0961712e-06
5.4867576e-06
6.10606e-06
8.4152339e-06
9.5179069e-06
9.8244102e-06
9.309685e-06
8.6270902e-06
6.9757056e-06
3.7615396e-06
2.7002753e-06
1.8932792e-06
1.1992618e-06
7.6266213e-07
4.6115093e-07
2.3453566e-07
9.5904833e-08
3.4081106e-08
1.0836367e-08
3.143156e-09
8.3458075e-10
2.0012651e-10
4.1995678e-11
7.326875e-12
1.022135e-12
1.7339385e-13
1.1475862e-13
1.2237336e-13
3.7836605e-05
1.1678526e-05
8.1124942e-06
5.4968468e-06
6.0871068e-06
8.3935163e-06
9.4948862e-06
9.8020313e-06
9.2884749e-06
8.6055192e-06
6.9574544e-06
3.750832e-06
2.6946325e-06
1.887982e-06
1.1960613e-06
7.6066491e-07
4.5987848e-07
2.3372385e-07
9.5541781e-08
3.3945206e-08
1.0792137e-08
3.1302602e-09
8.3117192e-10
1.9931635e-10
4.1827546e-11
7.297995e-12
1.0183062e-12
1.7291495e-13
1.1453034e-13
1.2212967e-13
3.7949018e-05
1.1697453e-05
8.1287059e-06
5.5069963e-06
6.0682545e-06
8.3718004e-06
9.4718897e-06
9.7796808e-06
9.2672945e-06
8.583984e-06
6.9392397e-06
3.7401529e-06
2.6889979e-06
1.8826948e-06
1.1928644e-06
7.5866841e-07
4.5860652e-07
2.329132e-07
9.5179448e-08
3.3809625e-08
1.0748018e-08
3.1173972e-09
8.2777158e-10
1.9850815e-10
4.1659802e-11
7.2691786e-12
1.0144856e-12
1.7243716e-13
1.1430269e-13
1.2188666e-13
3.806273e-05
1.1716175e-05
8.1448031e-06
5.5172027e-06
6.0495025e-06
8.3500855e-06
9.4489156e-06
9.7573575e-06
9.2461425e-06
8.5624842e-06
6.9210608e-06
3.7295023e-06
2.6833717e-06
1.8774176e-06
1.1896711e-06
7.5667242e-07
4.5733476e-07
2.321035e-07
9.4817675e-08
3.367428e-08
1.0703978e-08
3.1045558e-09
8.2437646e-10
1.9770104e-10
4.1492257e-11
7.2403917e-12
1.0106682e-12
1.7195962e-13
1.1407509e-13
1.2164372e-13
3.8177666e-05
1.1734685e-05
8.1607846e-06
5.5274636e-06
6.0308515e-06
8.3283711e-06
9.4259602e-06
9.7350587e-06
9.2250156e-06
8.5410171e-06
6.9029169e-06
3.7188798e-06
2.6777542e-06
1.8721511e-06
1.1864822e-06
7.5467761e-07
4.5606377e-07
2.3129504e-07
9.4456655e-08
3.3539268e-08
1.0660054e-08
3.0917492e-09
8.209904e-10
1.9689603e-10
4.132513e-11
7.2116737e-12
1.0068597e-12
1.7148335e-13
1.1384825e-13
1.214016e-13
3.8293746e-05
1.1752978e-05
8.1766429e-06
5.5377758e-06
6.0122981e-06
8.3066557e-06
9.403023e-06
9.7127828e-06
9.2039112e-06
8.5195806e-06
6.8848067e-06
3.7082853e-06
2.6721455e-06
1.8668955e-06
1.1832973e-06
7.5268355e-07
4.5479305e-07
2.304874e-07
9.4096105e-08
3.3404443e-08
1.0616189e-08
3.0789577e-09
8.176077e-10
1.9609165e-10
4.1158102e-11
7.1829675e-12
1.0030523e-12
1.7100746e-13
1.136218e-13
1.2115991e-13
3.8410891e-05
1.1771049e-05
8.1923691e-06
5.5481346e-06
5.9938389e-06
8.284937e-06
9.3801042e-06
9.6905297e-06
9.1828301e-06
8.4981757e-06
6.8667296e-06
3.6977185e-06
2.6665458e-06
1.8616509e-06
1.1801171e-06
7.5069095e-07
4.5352329e-07
2.2968117e-07
9.373637e-08
3.326997e-08
1.0572445e-08
3.0662019e-09
8.1423424e-10
1.9528939e-10
4.0991496e-11
7.1543307e-12
9.9925387e-13
1.7053273e-13
1.1339598e-13
1.2091891e-13
3.8529021e-05
1.1788905e-05
8.2079592e-06
5.5585358e-06
5.9754724e-06
8.2632144e-06
9.3572022e-06
9.6682981e-06
9.1617719e-06
8.4768016e-06
6.8486851e-06
3.6871792e-06
2.6609553e-06
1.8564175e-06
1.1769415e-06
7.4869959e-07
4.5225421e-07
2.2887613e-07
9.3377301e-08
3.313577e-08
1.0528791e-08
3.0534708e-09
8.1086679e-10
1.9448842e-10
4.0825125e-11
7.1257294e-12
9.9545936e-13
1.700583e-13
1.1317022e-13
1.2067797e-13
3.8648053e-05
1.1806543e-05
8.2234089e-06
5.5689765e-06
5.957198e-06
8.2414879e-06
9.334315e-06
9.6460867e-06
9.1407351e-06
8.4554567e-06
6.8306717e-06
3.676667e-06
2.6553739e-06
1.8511961e-06
1.173771e-06
7.4671017e-07
4.509864e-07
2.2807261e-07
9.3019097e-08
3.3001941e-08
1.0485265e-08
3.0407778e-09
8.0750927e-10
1.9368974e-10
4.0659215e-11
7.0972041e-12
9.9167462e-13
1.695852e-13
1.129452e-13
1.2043784e-13
3.8767904e-05
1.182395e-05
8.2387086e-06
5.5794533e-06
5.9390119e-06
8.2197561e-06
9.3114431e-06
9.623895e-06
9.11972e-06
8.4341406e-06
6.8126884e-06
3.6661815e-06
2.6498018e-06
1.8459866e-06
1.1706056e-06
7.4472223e-07
4.4971935e-07
2.2727019e-07
9.2661478e-08
3.2868343e-08
1.0441811e-08
3.0281041e-09
8.0415619e-10
1.9289196e-10
4.0493458e-11
7.0687e-12
9.8789222e-13
1.6911252e-13
1.1272053e-13
1.201981e-13
3.8888491e-05
1.1841104e-05
8.2538518e-06
5.5899642e-06
5.920913e-06
8.1980176e-06
9.2885862e-06
9.6017231e-06
9.0987267e-06
8.4128539e-06
6.7947341e-06
3.6557223e-06
2.6442392e-06
1.8407893e-06
1.1674458e-06
7.4273642e-07
4.4845371e-07
2.264694e-07
9.2304765e-08
3.2735127e-08
1.0398489e-08
3.0154689e-09
8.0081313e-10
1.9209648e-10
4.0328163e-11
7.040272e-12
9.8411951e-13
1.6864104e-13
1.1249645e-13
1.1995899e-13
3.9009731e-05
1.1857983e-05
8.2688421e-06
5.6005094e-06
5.9029026e-06
8.1762714e-06
9.2657409e-06
9.5795698e-06
9.0777532e-06
8.3915952e-06
6.7768081e-06
3.6452891e-06
2.6386862e-06
1.8356041e-06
1.1642913e-06
7.4075254e-07
4.4718919e-07
2.2567002e-07
9.1948809e-08
3.2602218e-08
1.0355267e-08
3.0028618e-09
7.97477e-10
1.9130251e-10
4.0163151e-11
7.011888e-12
9.8035185e-13
1.6816994e-13
1.1227242e-13
1.1971995e-13
3.9131539e-05
1.1874579e-05
8.2836803e-06
5.6110862e-06
5.884977e-06
8.1545161e-06
9.2429064e-06
9.5574325e-06
9.0567959e-06
8.3703617e-06
6.7589092e-06
3.6348817e-06
2.6331431e-06
1.8304318e-06
1.161143e-06
7.3877124e-07
4.4592637e-07
2.2487236e-07
9.1593798e-08
3.2469708e-08
1.0312182e-08
2.9902952e-09
7.9415145e-10
1.90511e-10
3.9998633e-11
6.9835855e-12
9.7659466e-13
1.6770022e-13
1.1204912e-13
1.194817e-13
3.9253831e-05
1.1890895e-05
8.2983572e-06
5.6216904e-06
5.8671339e-06
8.1327504e-06
9.2200829e-06
9.5353096e-06
9.0358531e-06
8.3491515e-06
6.7410364e-06
3.6244994e-06
2.6276097e-06
1.8252723e-06
1.1580006e-06
7.3679211e-07
4.4466476e-07
2.2407605e-07
9.1239475e-08
3.2337465e-08
1.0269183e-08
2.9777515e-09
7.9083135e-10
1.8972063e-10
3.983432e-11
6.9553134e-12
9.7284103e-13
1.6723104e-13
1.1182621e-13
1.1924387e-13
3.9376525e-05
1.1906924e-05
8.3128637e-06
5.6323193e-06
5.8493743e-06
8.1109741e-06
9.1972686e-06
9.5132002e-06
9.0149253e-06
8.3279649e-06
6.7231888e-06
3.614142e-06
2.6220863e-06
1.8201257e-06
1.1548645e-06
7.3481578e-07
4.4340501e-07
2.232816e-07
9.0886159e-08
3.2205641e-08
1.0226325e-08
2.9652496e-09
7.8752208e-10
1.8893276e-10
3.967051e-11
6.9271246e-12
9.6909798e-13
1.6676311e-13
1.1160387e-13
1.1900668e-13
3.9499537e-05
1.1922658e-05
8.3271968e-06
5.6429706e-06
5.8316972e-06
8.0891863e-06
9.1744627e-06
9.4911045e-06
8.9940122e-06
8.3068007e-06
6.7053652e-06
3.603809e-06
2.6165728e-06
1.814992e-06
1.1517347e-06
7.3284204e-07
4.4214683e-07
2.2248882e-07
9.0533703e-08
3.207416e-08
1.018358e-08
2.9527792e-09
7.8422071e-10
1.8814663e-10
3.9507034e-11
6.8989884e-12
9.6536111e-13
1.6629566e-13
1.113816e-13
1.1876956e-13
3.9622784e-05
1.1938091e-05
8.3413554e-06
5.6536412e-06
5.8141003e-06
8.0673854e-06
9.1516639e-06
9.4690208e-06
8.9731128e-06
8.2856577e-06
6.6875646e-06
3.5934999e-06
2.6110692e-06
1.8098721e-06
1.1486117e-06
7.3087148e-07
4.4089075e-07
2.2169799e-07
9.0182284e-08
3.1943109e-08
1.0140981e-08
2.9403522e-09
7.8093066e-10
1.8736315e-10
3.934409e-11
6.8709408e-12
9.6163561e-13
1.6582961e-13
1.1116002e-13
1.1853319e-13
3.9746187e-05
1.1953222e-05
8.3553373e-06
5.6643276e-06
5.7965809e-06
8.0455704e-06
9.1288717e-06
9.4469484e-06
8.952226e-06
8.2645345e-06
6.6697855e-06
3.5832141e-06
2.6055754e-06
1.8047658e-06
1.1454952e-06
7.2890369e-07
4.396363e-07
2.2090873e-07
8.9831655e-08
3.1812365e-08
1.009848e-08
2.9279522e-09
7.7764721e-10
1.8658108e-10
3.9181414e-11
6.8429347e-12
9.5791509e-13
1.6536419e-13
1.1093879e-13
1.182972e-13
3.9869665e-05
1.1968054e-05
8.3691385e-06
5.6750266e-06
5.7791384e-06
8.0237406e-06
9.1060851e-06
9.4248871e-06
8.931351e-06
8.2434309e-06
6.6520271e-06
3.5729513e-06
2.6000915e-06
1.7996732e-06
1.1423858e-06
7.2693926e-07
4.3838408e-07
2.2012153e-07
8.9482108e-08
3.1682066e-08
1.0056131e-08
2.9155964e-09
7.7437531e-10
1.8580171e-10
3.901928e-11
6.8150188e-12
9.5420606e-13
1.6490008e-13
1.1071812e-13
1.1806182e-13
3.9993139e-05
1.1982592e-05
8.3827519e-06
5.6857346e-06
5.7617727e-06
8.0018956e-06
9.0833021e-06
9.4028344e-06
8.9104855e-06
8.2223456e-06
6.6342882e-06
3.5627109e-06
2.5946176e-06
1.7945943e-06
1.1392833e-06
7.2497797e-07
4.3713381e-07
2.1933617e-07
8.9133498e-08
3.1552138e-08
1.0013903e-08
2.9032753e-09
7.7111216e-10
1.8502429e-10
3.8857527e-11
6.787164e-12
9.5050432e-13
1.6443653e-13
1.104975e-13
1.178265e-13
4.0116533e-05
1.1996833e-05
8.3961723e-06
5.6964467e-06
5.7444802e-06
7.9800333e-06
9.0605224e-06
9.3807886e-06
8.8896269e-06
8.2012766e-06
6.616568e-06
3.5524929e-06
2.5891537e-06
1.7895296e-06
1.1361883e-06
7.2302041e-07
4.3588602e-07
2.1855294e-07
8.8785996e-08
3.1422667e-08
9.9718301e-09
2.891e-09
7.6786103e-10
1.8424969e-10
3.8696345e-11
6.7594045e-12
9.4681484e-13
1.6397446e-13
1.1027758e-13
1.1759195e-13
4.0239773e-05
1.201076e-05
8.409399e-06
5.7071627e-06
5.7272602e-06
7.9581522e-06
9.0377455e-06
9.3587495e-06
8.8687748e-06
8.1802219e-06
6.5988653e-06
3.5422965e-06
2.5836997e-06
1.7844789e-06
1.1331004e-06
7.2106611e-07
4.346402e-07
2.1777144e-07
8.843935e-08
3.1293525e-08
9.9298626e-09
2.8787538e-09
7.6461707e-10
1.8347665e-10
3.8535461e-11
6.731692e-12
9.4313109e-13
1.6351309e-13
1.1005803e-13
1.173578e-13
4.0362785e-05
1.2024348e-05
8.4224298e-06
5.7178831e-06
5.7101148e-06
7.9362526e-06
9.0149698e-06
9.3367163e-06
8.8479294e-06
8.1591812e-06
6.5811791e-06
3.5321212e-06
2.5782556e-06
1.7794423e-06
1.13002e-06
7.1911565e-07
4.3339694e-07
2.1699218e-07
8.8093858e-08
3.1164853e-08
9.8880545e-09
2.8665545e-09
7.6138541e-10
1.8270649e-10
3.8375161e-11
6.7040774e-12
9.3945984e-13
1.6305311e-13
1.0983904e-13
1.1712426e-13
4.0485501e-05
1.203758e-05
8.4352594e-06
5.7286027e-06
5.6930437e-06
7.9143343e-06
8.9921948e-06
9.3146882e-06
8.8270907e-06
8.1381543e-06
6.5635083e-06
3.5219665e-06
2.5728213e-06
1.7744196e-06
1.126947e-06
7.1716874e-07
4.3215594e-07
2.1621493e-07
8.7749371e-08
3.1036578e-08
9.846376e-09
2.854392e-09
7.5816311e-10
1.8193844e-10
3.8215276e-11
6.6765298e-12
9.3579664e-13
1.6259372e-13
1.0962007e-13
1.1689075e-13
4.0607851e-05
1.2050455e-05
8.447885e-06
5.7393094e-06
5.6760444e-06
7.8923963e-06
8.9694211e-06
9.2926655e-06
8.8062575e-06
8.1171399e-06
6.545852e-06
3.5118319e-06
2.5673966e-06
1.7694115e-06
1.1238819e-06
7.15226e-07
4.3091775e-07
2.1543999e-07
8.7406078e-08
3.090879e-08
9.8048635e-09
2.8422789e-09
7.549538e-10
1.8117345e-10
3.8056016e-11
6.6490874e-12
9.3214705e-13
1.6213593e-13
1.0940182e-13
1.1665802e-13
4.0729771e-05
1.2062978e-05
8.4603033e-06
5.749986e-06
5.6591174e-06
7.8704384e-06
8.9466478e-06
9.2706478e-06
8.7854282e-06
8.0961356e-06
6.528209e-06
3.5017168e-06
2.5619815e-06
1.7644177e-06
1.1208244e-06
7.1328692e-07
4.2968182e-07
2.1466696e-07
8.706371e-08
3.0781358e-08
9.7634647e-09
2.8301973e-09
7.5175237e-10
1.8041021e-10
3.7897093e-11
6.6216991e-12
9.2850408e-13
1.6167888e-13