/*--------------------------------*- C++ -*----------------------------------*\
| =========                 |                                                 |
| \\      /  F ield         | OpenFOAM: The Open Source CFD Toolbox           |
|  \\    /   O peration     | Version:  v2012                                 |
|   \\  /    A nd           | Website:  www.openfoam.com                      |
|    \\/     M anipulation  |                                                 |
\*---------------------------------------------------------------------------*/
FoamFile
{
    version     2.0;
    format      ascii;
    class       volScalarField;
    location    "500";
    object      omega;
}
// * * * * * * * * * * * * * * * * * * * * * * * * * * * * * * * * * * * * * //

dimensions      [0 0 -1 0 0 0 0];


internalField   nonuniform List<scalar> 
24000
(
2895.4676
4396.4665
8474.7012
23798.156
68457.119
121108.17
165945.79
201124.23
220132.54
216495.33
217762.79
321058.99
627779.07
1071502.7
1569498.5
2057351.6
2580072.8
3266647.3
4333332.5
6118574.8
9167884.8
14428728
23686554
40585250
73257627
1.4206394e+08
3.0670835e+08
7.8752717e+08
2.7468473e+09
1.8456743e+10
2894.5468
4392.1039
8459.066
23699.212
68134.277
120761.48
165612.59
200827.45
219909.07
216340.21
217519.16
320443.54
626427.2
1069495.7
1566969.7
2054459.3
2576803.3
3262927.5
4329144.1
6113955.7
9162720.1
14422461
23677859
40571414
73232891
1.4201445e+08
3.0659411e+08
7.8719836e+08
2.7454622e+09
1.8451858e+10
2893.6215
4387.3147
8440.4654
23598.838
67864.709
120521.98
165417.88
200652.6
219789.74
216247.45
217361.78
320139.95
625669.38
1068224.9
1565131.8
2052280.7
2574617.8
3260782.8
4326895.5
6111318.7
9159370.6
14418066
23671961
40563145
73220434
1.4199387e+08
3.0655653e+08
7.8712313e+08
2.7453203e+09
1.8448869e+10
2892.5364
4382.3532
8421.8677
23501.704
67604.252
120278.96
165200.59
200462.78
219644.07
216122.02
217186.23
319883.41
625137.52
1067307
1563721.4
2050537.9
2572789.6
3259089.4
4325530.8
6110424.3
9158988.2
14418119
23672273
40563443
73220204
1.4199184e+08
3.0654827e+08
7.8708793e+08
2.7451119e+09
1.844899e+10
2891.305
4377.2409
8403.1233
23405.781
67346.332
120036.82
164981.47
200279.06
219497.64
215987.94
217004.99
319682.46
624783.11
1066637.5
1562541.4
2048945.3
2571012.9
3257329.5
4323906.6
6108961.1
9157638.4
14416786
23670811
40561603
73217527
1.4198727e+08
3.0653904e+08
7.870647e+08
2.7450298e+09
1.8448494e+10
2889.9332
4372.0274
8384.4851
23311.022
67090.621
119795.72
164761.76
200097.2
219348.55
215847.02
216819.64
319512.87
624546.24
1066143
1561549
2047520.3
2569384.9
3255738.5
4322546
6107953
9157034.8
14416598
23671055
40562355
73218992
1.4198991e+08
3.0654376e+08
7.8707257e+08
2.7450298e+09
1.8448987e+10
2888.4258
4366.7251
8365.9848
23217.202
66836.328
119555.25
164542.31
199916.64
219198.33
215702.24
216631.86
319364.96
624385.56
1065760.7
1560671
2046186.1
2567817.1
3254181.6
4321201.9
6106953.5
9156448.6
14416468
23671455
40563464
73221223
1.4199421e+08
3.0655239e+08
7.8709148e+08
2.7450745e+09
1.8449672e+10
2886.7851
4361.3382
8347.6336
23124.21
66583.099
119314.63
164324.06
199736.93
219047.56
215555.26
216442.72
319231.19
624275.46
1065453.3
1559871.2
2044917
2566298.5
3252666.9
4319909.2
6106034.9
9155995.7
14416553
23672201
40565140
73224433
1.4200033e+08
3.0656484e+08
7.8711987e+08
2.7451504e+09
1.8450593e+10
2885.0118
4355.8661
8329.4269
23031.951
66330.723
119073.91
164106.58
199557.81
218896.57
215407.03
216252.82
319106.95
624198.88
1065195.6
1559122.7
2043689.8
2564809.7
3251174
4318638.2
6105147.5
9155595.4
14416729
23673103
40567091
73228146
1.4200744e+08
3.0657942e+08
7.8715378e+08
2.745246e+09
1.8451637e+10
2883.1052
4350.3069
8311.3567
22940.351
66079.073
118833.09
163889.54
199379.12
218745.54
215258.15
216062.57
318989.24
624144.99
1064971.5
1558409.3
2042491.7
2563342.2
3249697.9
4317385.5
6104287.5
9155240.5
14416981
23674129
40569252
73232230
1.4201525e+08
3.065955e+08
7.8719151e+08
2.7453549e+09
1.8452769e+10
2881.0644
4344.6581
8293.4141
22849.355
65828.066
118592.17
163672.7
199200.75
218594.55
215108.87
215872.2
318876.1
624106.64
1064770.3
1557719.6
2041313.2
2561888.8
3248232.1
4316143
6103442.2
9154910
14417273
23675226
40571535
73236534
1.4202349e+08
3.0661251e+08
7.8723164e+08
2.7454723e+09
1.8453956e+10
2878.8877
4338.9173
8275.5912
22758.923
65577.646
118351.14
163455.91
199022.59
218443.65
214959.47
215681.91
318766.24
624079.16
1064585.2
1557046.6
2040148.7
2560445.7
3246774
4314908.4
6102608.1
9154597.8
14417596
23676374
40573905
73240993
1.4203202e+08
3.0663015e+08
7.8727339e+08
2.7455955e+09
1.8455178e+10
2876.5735
4333.0824
8257.8812
22669.019
65327.774
118110
163239.06
198844.6
218292.89
214810.2
215491.78
318658.8
624059.39
1064411.4
1556385.4
2038994
2559009.7
3245321.1
4313678.3
6101780
9154295.2
14417936
23677549
40576322
73245540
1.4204073e+08
3.0664817e+08
7.8731616e+08
2.7457223e+09
1.8456422e+10
2874.1204
4327.1518
8240.2781
22579.617
65078.422
117868.76
163022.05
198666.72
218142.27
214661.18
215301.91
318553.19
624045.19
1064245.7
1555732.7
2037846.8
2557579.5
3243872.9
4312453.1
6100958.3
9154002.4
14418290
23678750
40578782
73250159
1.4204958e+08
3.0666648e+08
7.8735967e+08
2.7458518e+09
1.8457683e+10
2871.5269
4321.1239
8222.7773
22490.704
64829.577
117627.38
162804.83
198488.9
217991.8
214512.51
215112.32
318448.98
624035.01
1064085.8
1555086.1
2036705
2556153.5
3242427.6
4311230.4
6100139.2
9153713.1
14418651
23679959
40581258
73254810
1.4205849e+08
3.0668494e+08
7.8740357e+08
2.7459828e+09
1.8458951e+10
2868.7917
4314.9978
8205.3746
22402.236
64581.215
117385.96
162587.35
198311.11
217841.49
214364.24
214923.05
318345.89
624027.79
1063930.3
1554444.2
2035567.5
2554731
3240985.4
4310010.5
6099323.3
9153428.1
14419017
23681178
40583748
73259486
1.4206744e+08
3.067035e+08
7.8744776e+08
2.7461149e+09
1.8460225e+10
2865.9137
4308.7726
8188.0668
22314.259
64333.341
117144.31
162369.57
198133.33
217691.34
214216.4
214734.11
318243.68
624022.72
1063777.8
1553805.7
2034433.1
2553311.2
3239545.2
4308792
6098508.3
9153143.4
14419384
23682397
40586240
73264164
1.4207641e+08
3.0672208e+08
7.8749202e+08
2.7462474e+09
1.8461499e+10
2862.892
4302.4479
8170.8511
22226.761
64085.95
116902.46
162151.46
197955.54
217541.34
214068.99
214545.51
318142.2
624019.18
1063627.7
1553169.8
2033301.6
2551894.1
3238107.7
4307576.3
6097696.4
9152862.4
14419755
23683622
40588739
73268853
1.4208539e+08
3.067407e+08
7.8753638e+08
2.7463803e+09
1.8462775e+10
2859.7261
4296.0233
8153.7248
22139.732
63839.037
116660.4
161932.99
197777.7
217391.48
213922.02
214357.25
318041.33
624016.69
1063479.1
1552535.7
2032172.1
2550478.9
3236671.7
4306361.7
6096884.7
9152580.4
14420123
23684842
40591230
73273530
1.4209435e+08
3.0675928e+08
7.8758065e+08
2.746513e+09
1.8464048e+10
2856.4156
4289.499
8136.6857
22053.161
63592.599
116418.14
161714.14
197599.81
217241.77
213775.5
214169.35
317940.99
624014.93
1063331.5
1551902.9
2031044.3
2549065.7
3235237.8
4305149
6096074.7
9152299.7
14420492
23686061
40593719
73278201
1.4210329e+08
3.0677783e+08
7.8762486e+08
2.7466455e+09
1.8465318e+10
2852.9602
4282.8752
8119.7319
21967.041
63346.634
116175.68
161494.89
197421.85
217092.18
213629.43
213981.73
317841.13
624013.63
1063184.6
1551271
2029917.7
2547653.7
3233804.9
4303936.7
6095264.1
9152016.6
14420856
23687273
40596194
73282849
1.421122e+08
3.067963e+08
7.8766888e+08
2.7467774e+09
1.8466584e+10
2849.36
4276.1523
8102.8615
21881.361
63101.14
115933.03
161275.22
197243.8
216942.72
213483.83
213794.53
317741.74
624012.7
1063038.1
1550639.9
2028792.6
2546243.6
3232374
4302726.7
6094455.5
9151735.4
14421222
23688485
40598668
73287492
1.4212109e+08
3.0681474e+08
7.8771281e+08
2.746909e+09
1.8467847e+10
2845.6155
4269.3311
8086.0725
21796.115
62856.116
115690.2
161055.11
197065.64
216793.36
213338.69
213607.56
317642.79
624011.98
1062892
1550009.4
2027668.3
2544834.7
3230944.3
4301517.1
6093646.4
9151451.7
14421582
23689688
40601127
73292108
1.4212994e+08
3.0683308e+08
7.877565e+08
2.7470399e+09
1.8469105e+10
2841.7271
4262.4125
8069.3633
21711.296
62611.56
115447.2
160834.56
196887.36
216644.11
213194.02
213420.97
317544.26
624011.38
1062746
1549379.3
2026545.3
2543427.3
3229516.4
4300309.3
6092838.5
9151168.5
14421942
23690887
40603578
73296710
1.4213875e+08
3.0685135e+08
7.8780003e+08
2.7471702e+09
1.8470358e+10
2837.6958
4255.3977
8052.7317
21626.894
62367.472
115204.04
160613.53
196708.95
216494.97
213049.81
213234.94
317446.16
624010.81
1062600
1548749.5
2025422.9
2542021
3228089.4
4299101.8
6092029.7
9150882.3
14422296
23692077
40606013
73301283
1.4214751e+08
3.0686952e+08
7.8784329e+08
2.7472997e+09
1.8471604e+10
2833.5226
4248.288
8036.176
21542.902
62123.85
114960.72
160392.04
196530.39
216345.91
212906.06
213049.48
317348.49
624010.18
1062454
1548120
2024301.7
2540616.4
3226664.5
4297896.5
6091223
9150597.8
14422650
23693265
40608444
73305846
1.4215625e+08
3.0688762e+08
7.878864e+08
2.7474286e+09
1.8472847e+10
2829.2088
4241.0849
8019.6941
21459.313
61880.694
114717.27
160170.05
196351.67
216196.94
212762.73
212864.56
317251.25
624009.38
1062307.6
1547490.6
2023181.2
2539213
3225240.7
4296691.7
6090415.4
9150310.3
14422999
23694443
40610856
73310377
1.4216493e+08
3.0690561e+08
7.8792921e+08
2.7475565e+09
1.8474083e+10
2824.756
4233.7903
8003.2842
21376.119
61638.003
114473.65
159947.61
196172.79
216048.05
212619.84
212680.16
317154.47
624008.37
1062160.9
1546861.1
2022061.5
2537810.9
3223818.5
4295488.6
6089609.1
9150023.1
14423346
23695618
40613260
73314891
1.4217357e+08
3.0692352e+08
7.8797182e+08
2.7476837e+09
1.8475314e+10
2820.1661
4226.4059
7986.9445
21293.311
61395.777
114229.82
159724.76
195993.71
215899.23
212477.36
212496.28
317058.19
624007.13
1062013.7
1546231.5
2020942.2
2536409.7
3222397.2
4294285.6
6088801.5
9149732.5
14423686
23696780
40615646
73319372
1.4218216e+08
3.069413e+08
7.8801413e+08
2.7478099e+09
1.8476538e+10
2815.441
4218.934
7970.6726
21210.88
61154.017
113985.74
159501.65
195814.49
215750.46
212335.25
212312.88
316962.48
624005.71
1061866.1
1545602
2019824
2535010.1
3220977.9
4293084.8
6087995.9
9149443.4
14424028
23697942
40618027
73323843
1.4219072e+08
3.0695903e+08
7.8805626e+08
2.7479355e+09
1.8477758e+10
2810.5831
4211.3767
7954.4665
21128.818
60912.723
113741.34
159278.53
195635.23
215601.74
212193.68
212129.94
316867.38
624004.1
1061718
1544972.4
2018706.3
2533611.5
3219559.5
4291884.2
6087189.3
9149151.1
14424362
23699093
40620389
73328281
1.4219922e+08
3.0697662e+08
7.8809809e+08
2.74806e+09
1.8478971e+10
2805.5949
4203.7367
7938.3241
21047.116
60671.894
113496.62
159055.4
195455.93
215453.06
212052.36
211947.43
316772.96
624002.32
1061569.4
1544342.7
2017589.4
2532214.4
3218142.8
4290685.4
6086383.9
9148859.1
14424696
23700240
40622743
73332702
1.4220768e+08
3.0699414e+08
7.8813971e+08
2.7481838e+09
1.8480179e+10
2800.4792
4196.0164
7922.2431
20965.765
60431.53
113251.59
158832.25
195276.58
215304.42
211911.21
211765.32
316679.31
624000.39
1061420.4
1543712.9
2016473.1
2530818.2
3216727
4289486.7
6085577.2
9148563.6
14425023
23701375
40625078
73337091
1.4221608e+08
3.0701154e+08
7.8818102e+08
2.7483066e+09
1.848138e+10
2795.2388
4188.2188
7906.2209
20884.754
60191.629
113006.24
158609.08
195097.19
215155.81
211770.21
211583.55
316586.53
623998.33
1061271
1543083.3
2015358
2529423.8
3215313.5
4288290.4
6084773
9148270.2
14425351
23702511
40627410
73341471
1.4222446e+08
3.0702888e+08
7.8822217e+08
2.7484287e+09
1.8482578e+10
2789.8771
4180.3468
7890.2549
20804.074
59952.192
112760.57
158385.87
194917.73
215007.23
211629.33
211402.09
316494.69
623996.04
1061121
1542453.4
2014243.3
2528030.5
3213901
4287094.5
6083967.7
9147973.5
14425673
23703635
40629722
73345817
1.4223278e+08
3.0704609e+08
7.8826299e+08
2.7485497e+09
1.8483768e+10
2784.3974
4172.4035
7874.3423
20723.714
59713.217
112514.58
158162.61
194738.21
214858.65
211488.56
211220.88
316403.93
623993.49
1060970.2
1541823.4
2013129.5
2526638.8
3212490.4
4285900.6
6083163.9
9147677.5
14425994
23704756
40632028
73350148
1.4224107e+08
3.0706322e+08
7.8830362e+08
2.74867e+09
1.8484954e+10
2778.8033
4164.3922
7858.4805
20643.663
59474.701
112268.27
157939.3
194558.62
214710.09
211347.89
211039.84
316314.37
623990.65
1060818.6
1541192.9
2012016.1
2525247.8
3211080.5
4284706.6
6082358.6
9147377.5
14426308
23705864
40634313
73354444
1.4224929e+08
3.0708023e+08
7.8834392e+08
2.7487891e+09
1.8486133e+10
2773.0985
4156.3162
7842.6667
20563.911
59236.641
112021.63
157715.93
194378.94
214561.52
211207.31
210858.92
316226.22
623987.58
1060666.4
1540562.4
2010903.7
2523858.7
3209672.9
4283515.2
6081555.9
9147080.1
14426624
23706974
40636597
73358734
1.422575e+08
3.0709719e+08
7.8838408e+08
2.7489077e+09
1.8487309e+10
2767.2871
4148.179
7826.8978
20484.447
58999.035
111774.67
157492.49
194199.18
214412.95
211066.81
210678.02
316139.67
623984.23
1060513.3
1539931.7
2009791.8
2522470.5
3208266.1
4282323.9
6080751.7
9146778.9
14426932
23708072
40638861
73362990
1.4226564e+08
3.0711401e+08
7.8842392e+08
2.7490252e+09
1.8488478e+10
2761.3731
4139.9841
7811.1712
20405.26
58761.88
111527.39
157268.97
194019.33
214264.37
210926.39
210497.03
316054.95
623980.58
1060359.5
1539300.8
2008680.8
2521083.9
3206861.4
4281134.6
6079949.3
9146478.7
14427241
23709167
40641118
73367233
1.4227375e+08
3.0713077e+08
7.8846357e+08
2.749142e+09
1.8489643e+10
2755.3607
4131.7354
7795.4836
20326.338
58525.173
111279.77
157045.37
193839.38
214115.78
210786.05
210315.85
315972.31
623976.55
1060204.9
1538669.5
2007570.1
2519698
3205457.2
4279945
6079145.2
9146174.4
14427542
23710250
40643356
73371442
1.422818e+08
3.0714741e+08
7.8850291e+08
2.7492577e+09
1.8490801e+10
2749.2545
4123.4366
7779.832
20247.669
58288.909
111031.83
156821.67
193659.34
213967.17
210645.76
210134.34
315892.04
623972.11
1060049.5
1538038.2
2006460.5
2518314.1
3204055.4
4278758.4
6078344.1
9145873.4
14427846
23711335
40645595
73375648
1.4228984e+08
3.07164e+08
7.8854212e+08
2.7493729e+09
1.8491956e+10
2743.0589
4115.0915
7764.2134
20169.242
58053.086
110783.57
156597.88
193479.18
213818.54
210505.51
209952.41
315814.27
623967.06
1059893.2
1537406.5
2005351.4
2516931
3202654.5
4277571.7
6077541.5
9145568.3
14428143
23712409
40647813
73379819
1.4229782e+08
3.0718046e+08
7.88581e+08
2.7494869e+09
1.8493104e+10
2736.7785
4106.7042
7748.6244
20091.044
57817.698
110534.97
156373.97
193298.92
213669.89
210365.31
209770.74
315736.45
623961.3
1059736.1
1536774.5
2004243
2515549.6
3201255.6
4276387.2
6076740.8
9145264.5
14428440
23713480
40650026
73383978
1.4230577e+08
3.0719686e+08
7.8861971e+08
2.7496003e+09
1.8494249e+10
2730.4182
4098.2786
7733.0619
20013.063
57582.739
110286.04
156149.95
193118.55
213521.2
210225.12
209589.35
315658.57
623954.78
1059577.9
1536142.1
2003134.9
2514168.7
3199857.2
4275202.3
6075938.2
9144956.4
14428729
23714539
40652219
73388103
1.4231366e+08
3.0721314e+08
7.8865811e+08
2.7497126e+09
1.8495386e+10
2723.9829
4089.8188
7717.5223
19935.287
57348.204
110036.78
155925.81
192938.05
213372.47
210084.95
209408.21
315580.66
623947.6
1059419
1535509.5
2002027.7
2512789.7
3198461.2
4274020.3
6075138.6
9144651.5
14429021
23715600
40654413
73392226
1.4232153e+08
3.0722938e+08
7.886964e+08
2.7498245e+09
1.8496522e+10
2717.4773
4081.3288
7702.002
19857.704
57114.088
109787.18
155701.53
192757.43
213223.7
209944.82
209227.34
315502.7
623939.72
1059259
1534876.4
2000920.9
2511411.6
3197065.9
4272838.3
6074337.5
9144342.6
14429306
23716649
40656587
73396315
1.4232935e+08
3.0724549e+08
7.8873437e+08
2.7499352e+09
1.849765e+10
2710.9065
4072.8127
7686.498
19780.301
56880.384
109537.24
155477.11
192576.67
213074.89
209804.68
209046.71
315424.7
623931.17
1059098.1
1534243.1
1999814.9
2510035
3195672.7
4271658.3
6073538.2
9144035.1
14429591
23717697
40658756
73400393
1.4233714e+08
3.0726155e+08
7.8877218e+08
2.7500454e+09
1.8498775e+10
2704.2756
4064.2747
7671.0066
19703.066
56647.086
109286.97
155252.55
192395.78
212926.03
209664.5
208866.34
315346.66
623921.93
1058936.2
1533609.2
1998709.1
2508659
3194279.9
4270478.1
6072737.2
9143723.4
14429869
23718733
40660906
73404438
1.4234487e+08
3.0727748e+08
7.888097e+08
2.7501546e+09
1.8499893e+10
2697.5896
4055.7188
7655.5246
19625.987
56414.189
109036.35
155027.83
192214.76
212777.12
209524.38
208686.21
315268.6
623912.11
1058773.5
1532975.1
1997604.2
2507284.9
3192889.6
4269300.9
6071939.5
9143415.3
14430151
23719772
40663059
73408484
1.423526e+08
3.0729339e+08
7.8884712e+08
2.7502633e+09
1.850101e+10
2690.8535
4047.1491
7640.0486
19549.053
56181.685
108785.39
154802.95
192033.59
212628.16
209384.23
208506.32
315190.51
623901.62
1058609.8
1532340.5
1996499.6
2505911.5
3191500
4268123.5
6071140.1
9143103.2
14430425
23720799
40665191
73412495
1.4236026e+08
3.0730918e+08
7.8888424e+08
2.750371e+09
1.8502119e+10
2684.0725
4038.5698
7624.5754
19472.249
55949.569
108534.08
154577.9
191852.27
212479.14
209243.89
208326.66
315112.39
623890.49
1058445.1
1531705.4
1995395.6
2504539.6
3190112.4
4266948.3
6070342.7
9142792.5
14430700
23721825
40667320
73416497
1.423679e+08
3.0732491e+08
7.889212e+08
2.7504782e+09
1.8503225e+10
2677.2515
4029.9848
7609.1017
19395.567
55717.832
108282.42
154352.67
191670.81
212330.06
209103.63
208147.23
315034.25
623878.73
1058279.3
1531069.7
1994291.7
2503168.2
3188725.1
4265772.6
6069543.2
9142477.5
14430967
23722839
40669428
73420466
1.4237548e+08
3.0734052e+08
7.8895787e+08
2.7505843e+09
1.8504325e+10
2670.3958
4021.3981
7593.6242
19318.992
55486.469
108030.41
154127.26
191489.18
212180.92
208963.47
207968.02
314956.13
623866.44
1058112.7
1530433.7
1993188.6
2501798.5
3187340.2
4264599.7
6068746.9
9142165.7
14431237
23723855
40671539
73424434
1.4238306e+08
3.073561e+08
7.8899446e+08
2.7506901e+09
1.8505422e+10
2663.5101
4012.8138
7578.1398
19242.516
55255.472
107778.04
153901.65
191307.4
212031.71
208823.42
207789.03
314878
623853.59
1057945
1529797.1
1992085.7
2500429.5
3185955.9
4263426.7
6067948.9
9141850
14431501
23724860
40673630
73428370
1.4239057e+08
3.0737157e+08
7.8903075e+08
2.7507949e+09
1.8506513e+10
2656.5995
4004.2357
7562.6453
19166.125
55024.834
107525.32
153675.83
191125.44
211882.44
208683.46
207610.25
314799.87
623840.18
1057776.4
1529160.1
1990983.5
2499062
3184573.6
4262255.8
6067152.8
9141535.6
14431764
23725863
40675717
73432295
1.4239806e+08
3.0738698e+08
7.890669e+08
2.7508992e+09
1.8507601e+10
2649.6688
3995.6676
7547.1374
19089.81
54794.548
107272.23
153449.81
190943.32
211733.1
208543.59
207431.68
314721.74
623826.2
1057606.8
1528522.4
1989881.3
2497695.1
3183191.8
4261084.7
6066355
9141217.3
14432021
23726855
40677786
73436190
1.424055e+08
3.0740228e+08
7.8910277e+08
2.7510025e+09
1.8508682e+10
2642.7229
3987.1132
7531.613
19013.56
54564.607
107018.78
153223.57
190761.02
211583.69
208403.8
207253.31
314643.61
623811.72
1057436.2
1527884.4
1988779.9
2496329.8
3181812.3
4259916.4
6065560.3
9140902.3
14432281
23727850
40679856
73440084
1.4241293e+08
3.0741755e+08
7.8913857e+08
2.7511056e+09
1.8509762e+10
2635.7665
3978.576
7516.0691
18937.364
54335.005
106764.95
152997.1
190578.55
211434.2
208264.09
207075.13
314565.48
623796.68
1057264.5
1527245.6
1987678.6
2494965.2
3180433.5
4258747.9
6064764
9140583.4
14432534
23728833
40681908
73443946
1.424203e+08
3.0743271e+08
7.8917408e+08
2.7512077e+09
1.8510834e+10
2628.804
3970.0597
7500.503
18861.214
54105.734
106510.76
152770.39
190395.88
211284.63
208124.44
206897.14
314487.37
623781.14
1057091.8
1526606.3
1986577.8
2493602
3179056.5
4257581.6
6063969.5
9140265.7
14432787
23729815
40683955
73447798
1.4242765e+08
3.0744782e+08
7.8920946e+08
2.7513093e+09
1.8511904e+10
2621.84
3961.5675
7484.9119
18785.101
53876.789
106256.19
152543.44
190213.03
211134.99
207984.86
206719.33
314409.27
623765.09
1056918
1525966.1
1985477
2492239.3
3177680
4256414.9
6063173.4
9139944.2
14433033
23730786
40685984
73451619
1.4243495e+08
3.0746281e+08
7.8924457e+08
2.7514101e+09
1.8512967e+10
2614.8788
3953.1027
7469.2932
18709.015
53648.163
106001.24
152316.24
190029.97
210985.26
207845.35
206541.69
314331.2
623748.62
1056743.3
1525325.6
1984376.8
2490878.1
3176305.7
4255250.8
6062380
9139625.5
14433282
23731758
40688014
73455439
1.4244223e+08
3.0747778e+08
7.8927959e+08
2.7515106e+09
1.8514028e+10
2607.9246
3944.6683
7453.6443
18632.95
53419.851
105745.9
152088.77
189846.72
210835.46
207705.9
206364.22
314253.16
623731.69
1056567.5
1524684.3
1983276.7
2489517.5
3174932
4254086.7
6061585
9139303
14433524
23732720
40690025
73459228
1.4244947e+08
3.0749264e+08
7.8931435e+08
2.7516101e+09
1.8515082e+10
2600.9815
3936.2675
7437.9629
18556.898
53191.848
105490.18
151861.03
189663.26
210685.56
207566.51
206186.92
314175.15
623714.35
1056390.8
1524042.4
1982177
2488158.2
3173560.1
4252924.5
6060791.9
9138981.8
14433766
23733680
40692033
73463007
1.4245668e+08
3.0750745e+08
7.8934898e+08
2.7517093e+09
1.8516133e+10
2594.0533
3927.9029
7422.2466
18480.851
52964.148
105234.06
151633.02
189479.59
210535.59
207427.17
206009.77
314097.17
623696.56
1056212.9
1523399.7
1981077.2
2486799.3
3172188.6
4251762.1
6059997.2
9138656.8
14434002
23734629
40694023
73466757
1.4246383e+08
3.0752215e+08
7.8938336e+08
2.7518076e+09
1.8517178e+10
2587.1436
3919.5772
7406.4932
18404.805
52736.747
104977.56
151404.72
189295.7
210385.53
207287.88
205832.77
314019.23
623678.43
1056034.2
1522756.6
1979977.9
2485441.8
3170819.2
4250602.2
6059205.2
9138334.8
14434240
23735581
40696014
73470506
1.4247098e+08
3.0753683e+08
7.8941767e+08
2.7519057e+09
1.8518222e+10
2580.2562
3911.2929
7390.7006
18328.754
52509.642
104720.65
151176.13
189111.59
210235.38
207148.63
205655.92
313941.32
623659.88
1055854.5
1522112.7
1978878.8
2484085
3169450.4
4249442.2
6058411.6
9138008.9
14434472
23736521
40697986
73474223
1.4247808e+08
3.075514e+08
7.894517e+08
2.7520029e+09
1.8519258e+10
2573.3942
3903.0522
7374.8666
18252.692
52282.827
104463.34
150947.22
188927.24
210085.15
207009.43
205479.21
313863.45
623640.97
1055673.7
1521468.2
1977780
2482729.5
3168083.4
4248284.2
6057619.8
9137684.3
14434703
23737460
40699955
73477931
1.4248515e+08
3.0756591e+08
7.8948562e+08
2.7520997e+09
1.8520291e+10
2566.5609
3894.8572
7358.989
18176.617
52056.299
104205.62
150718.01
188742.66
209934.82
206870.27
205302.64
313785.6
623621.66
1055491.9
1520822.8
1976681
2481374.2
3166716.7
4247125.6
6056826
9137355.3
14434928
23738386
40701903
73481606
1.4249216e+08
3.0758032e+08
7.8951925e+08
2.7521957e+09
1.8521317e+10
2559.7591
3886.7099
7343.0659
18100.524
51830.055
103947.5
150488.47
188557.84
209784.4
206731.15
205126.19
313707.81
623602.05
1055309.1
1520176.9
1975582.6
2480020.5
3165352.1
4245969.7
6056035.1
9137029.4
14435155
23739316
40703854
73485281
1.4249917e+08
3.075947e+08
7.8955282e+08
2.7522914e+09
1.8522341e+10
2552.9918
3878.6117
7327.0952
18024.411
51604.093
103688.96
150258.6
188372.77
209633.89
206592.08
204949.87
313630.05
623582.07
1055125.3
1519530.2
1974484.2
2478667.2
3163988
4244813.5
6055242.4
9136699.3
14435375
23740233
40705784
73488921
1.4250612e+08
3.0760895e+08
7.895861e+08
2.7523862e+09
1.8523358e+10
2546.2613
3870.5643
7311.0752
17948.275
51378.413
103430
150028.4
188187.45
209483.3
206453.03
204773.67
313552.33
623561.76
1054940.4
1518882.7
1973386
2477315.2
3162625.7
4243659.4
6054451.4
9136370.4
14435595
23741148
40707710
73492552
1.4251304e+08
3.0762316e+08
7.8961926e+08
2.7524806e+09
1.8524371e+10
2539.5702
3862.5689
7295.0039
17872.117
51153.013
103170.63
149797.84
188001.86
209332.61
206314.02
204597.59
313474.63
623541.06
1054754.4
1518234.3
1972287.5
2475963.2
3161263.5
4242504.5
6053658.2
9136036.8
14435807
23742051
40709616
73496149
1.4251991e+08
3.0763725e+08
7.8965214e+08
2.7525741e+09
1.8525377e+10
2532.9203
3854.6264
7278.8796
17795.937
50927.894
102910.83
149566.93
187816.01
209181.83
206175.04
204421.62
313396.98
623520.1
1054567.5
1517585.3
1971189.5
2474612.7
3159903.4
4241352.3
6052868.1
9135706.6
14436022
23742957
40711524
73499747
1.4252677e+08
3.0765132e+08
7.8968495e+08
2.7526674e+09
1.8526382e+10
2526.3138
3846.7377
7262.7003
17719.735
50703.056
102650.61
149335.66
187629.89
209030.96
206036.08
204245.75
313319.36
623498.81
1054379.5
1516935.5
1970091.4
2473262.6
3158543.5
4240199.4
6052075.6
9135371.5
14436229
23743850
40713411
73503308
1.4253356e+08
3.0766527e+08
7.8971746e+08
2.7527597e+09
1.8527378e+10
2519.7523
3838.9033
7246.4642
17643.512
50478.501
102389.96
149104.01
187443.48
208880
205897.16
204069.99
313241.78
623477.24
1054190.6
1516285
1968993.5
2471913.6
3157185.4
4239048.5
6051284.9
9135037.6
14436436
23744741
40715292
73506858
1.4254033e+08
3.0767915e+08
7.8974984e+08
2.7528517e+09
1.852837e+10
2513.2373
3831.1237
7230.1696
17567.273
50254.23
102128.89
148871.98
187256.79
208728.95
205758.28
203894.34
313164.23
623455.36
1054000.6
1515633.5
1967895.4
2470564.7
3155827.2
4237896.6
6050491.5
9134698.5
14436635
23745617
40717151
73510372
1.4254704e+08
3.0769291e+08
7.8978191e+08
2.7529427e+09
1.8529355e+10
2506.7701
3823.3989
7213.8147
17491.02
50030.245
101867.38
148639.56
187069.81
208577.82
205619.43
203718.79
313086.73
623433.26
1053809.6
1514981.6
1966797.7
2469217.3
3154471.3
4236747.6
6049701.2
9134362.7
14436837
23746497
40719013
73513885
1.4255374e+08
3.0770665e+08
7.8981391e+08
2.7530335e+09
1.8530337e+10
2500.3517
3815.729
7197.3976
17414.756
49806.549
101605.44
148406.75
186882.53
208426.59
205480.6
203543.34
313009.26
623410.84
1053617.6
1514328.6
1965699.8
2467870.2
3153115.6
4235597.8
6048908.6
9134021.9
14437030
23747363
40720852
73517360
1.4256037e+08
3.0772025e+08
7.8984559e+08
2.7531232e+09
1.8531311e+10
2493.983
3808.1137
7180.9161
17338.485
49583.146
101343.06
148173.53
186694.94
208275.28
205341.8
203367.98
312931.81
623388.13
1053424.6
1513674.9
1964602.1
2466524.2
3151761.6
4234450
6048117.6
9133682.1
14437223
23748227
40722685
73520823
1.4256698e+08
3.0773379e+08
7.8987713e+08
2.7532126e+09
1.8532281e+10
2487.6648
3800.5526
7164.3681
17262.214
49360.04
101080.24
147939.9
186507.04
208123.88
205203.03
203192.73
312854.39
623365.1
1053230.4
1513020.1
1963504
2465178.2
3150407.4
4233301.1
6047323.8
9133336.9
14437406
23749076
40724495
73524247
1.4257352e+08
3.0774719e+08
7.8990835e+08
2.7533009e+09
1.8533242e+10
2481.3975
3793.045
7147.7517
17185.946
49137.236
100816.99
147705.85
186318.81
207972.4
205064.28
203017.56
312777
623341.85
1053035.2
1512364.7
1962406.3
2463833.6
3149055.4
4232155
6046533.2
9132995.1
14437594
23749929
40726307
73527671
1.4258005e+08
3.0776058e+08
7.8993949e+08
2.753389e+09
1.8534202e+10
2475.1813
3785.5904
7131.0648
17109.689
48914.739
100553.3
147471.38
186130.26
207820.82
204925.57
202842.49
312699.63
623318.32
1052839
1511708.4
1961308.3
2462489.1
3147703.4
4231007.9
6045739.9
9132647.8
14437772
23750766
40728094
73531054
1.425865e+08
3.0777381e+08
7.8997029e+08
2.7534759e+09
1.8535152e+10
2469.0165
3778.1876
7114.3053
17033.449
48692.555
100289.18
147236.47
185941.36
207669.17
204786.88
202667.5
312622.27
623294.51
1052641.8
1511051.3
1960210.5
2461145.7
3146353.1
4229862.7
6044948
9132301.4
14437949
23751600
40729876
73534423
1.4259293e+08
3.0778698e+08
7.9000092e+08
2.7535624e+09
1.8536097e+10
2462.9029
3770.8359
7097.4714
16957.234
48470.691
100024.61
147001.12
185752.13
207517.43
204648.23
202492.6
312544.92
623270.36
1052443.4
1510393
1959112.1
2459802.2
3145002.5
4228716.2
6044153.2
9131948.9
14438116
23752419
40731631
73537750
1.4259928e+08
3.078e+08
7.9003119e+08
2.7536478e+09
1.8537033e+10
2456.8403
3763.5339
7080.561
16881.05
48249.156
99759.606
146765.33
185562.54
207365.61
204509.6
202317.78
312467.58
623245.98
1052244.1
1509734.1
1958014.1
2458460
3143653.9
4227572.3
6043361.1
9131599.5
14438287
23753240
40733388
73541073
1.4260562e+08
3.0781298e+08
7.9006136e+08
2.7537328e+09
1.8537966e+10
2450.8284
3756.2805
7063.5725
16804.907
48027.956
99494.166
146529.08
185372.59
207213.71
204370.99
202143.05
312390.25
623221.29
1052043.6
1509074.2
1956915.7
2457117.9
3142305.3
4226427.3
6042566.1
9131244.2
14438447
23754044
40735118
73544353
1.4261188e+08
3.078258e+08
7.9009116e+08
2.7538167e+09
1.8538889e+10
2444.8666
3749.0746
7046.5042
16728.811
47807.101
99228.289
146292.37
185182.27
207061.73
204232.41
201968.41
312312.93
623196.33
1051842
1508413.4
1955817.4
2455776.7
3140958.1
4225284
6041772.3
9130889.3
14438606
23754846
40736840
73547616
1.4261811e+08
3.0783855e+08
7.9012076e+08
2.7538999e+09
1.8539806e+10
2438.9542
3741.9148
7029.3547
16652.771
47586.599
98961.976
146055.19
184991.58
206909.66
204093.87
201793.85
312235.61
623171.07
1051639.4
1507751.5
1954718.5
2454435.4
3139610.7
4224139.3
6040975.4
9130528.4
14438755
23755630
40738536
73550835
1.4262425e+08
3.0785114e+08
7.9014999e+08
2.753982e+09
1.8540714e+10
2433.0904
3734.8
7012.1229
16576.795
47366.459
98695.231
145817.55
184800.51
206757.53
203955.35
201619.38
312158.32
623145.59
1051435.7
1507088.9
1953619.9
2453095.2
3138265
4222996.9
6040181
9130170
14438906
23756416
40740230
73554047
1.4263038e+08
3.0786368e+08
7.9017909e+08
2.7540636e+09
1.8541618e+10
2427.2742
3727.7289
6994.8081
16500.892
47146.692
98428.054
145579.42
184609.04
206605.31
203816.86
201445
312081.01
623119.8
1051231
1506425.2
1952520.9
2451755.1
3136919.3
4221853.5
6039383.5
9129805.5
14439047
23757185
40741897
73557213
1.4263642e+08
3.0787606e+08
7.9020778e+08
2.754144e+09
1.8542512e+10
2421.5046
3720.7003
6977.4098
16425.068
46927.306
98160.446
145340.82
184417.17
206453.02
203678.39
201270.71
312003.69
623093.71
1051025.1
1505760.7
1951421.9
2450415.8
3135574.9
4220711.4
6038586.8
9129440.8
14439186
23757949
40743554
73560358
1.4264243e+08
3.0788834e+08
7.9023624e+08
2.7542236e+09
1.8543399e+10
2415.7805
3713.7131
6959.928
16349.333
46708.312
97892.413
145101.72
184224.89
206300.66
203539.94
201096.51
311926.34
623067.26
1050818
1505094.9
1950322.3
2449076.3
3134230.1
4219567.9
6037787
9129069.9
14439314
23758696
40745183
73563458
1.4264835e+08
3.0790045e+08
7.902643e+08
2.7543019e+09
1.8544276e+10
2410.1004
3706.7663
6942.3635
16273.694
46489.722
97623.953
144862.14
184032.18