/*--------------------------------*- C++ -*----------------------------------*\
| =========                 |                                                 |
| \\      /  F ield         | OpenFOAM: The Open Source CFD Toolbox           |
|  \\    /   O peration     | Version:  v2012                                 |
|   \\  /    A nd           | Website:  www.openfoam.com                      |
|    \\/     M anipulation  |                                                 |
\*---------------------------------------------------------------------------*/
FoamFile
{
    version     2.0;
    format      ascii;
    class       surfaceScalarField;
    location    "500";
    object      phi;
}
// * * * * * * * * * * * * * * * * * * * * * * * * * * * * * * * * * * * * * //

dimensions      [1 0 -1 0 0 0 0];
oriented        oriented;


internalField   nonuniform List<scalar> 
47170
(
-9.0771358e-09
-4.2252992e-05
-1.4589221e-08
-3.4994354e-05
-1.5861022e-08
-2.8108747e-05
-1.5492447e-08
-2.1308954e-05
-1.3514376e-08
-1.455982e-05
-8.8997109e-09
-9.3618822e-06
-5.5802982e-09
-6.1043071e-06
-3.3519274e-09
-4.0890827e-06
-1.9854003e-09
-2.8110885e-06
-1.1438019e-09
-1.9722266e-06
-7.3110215e-10
-1.4000684e-06
-5.9362252e-10
-9.7928855e-07
-5.071057e-10
-6.6755961e-07
-4.2879315e-10
-4.5388183e-07
-3.6164339e-10
-3.0799878e-07
-3.0519536e-10
-2.0836608e-07
-2.5580306e-10
-1.4069049e-07
-2.125793e-10
-9.4747409e-08
-1.7312364e-10
-6.3582214e-08
-1.3716118e-10
-4.249217e-08
-1.0455699e-10
-2.8251009e-08
-7.6370631e-11
-1.8648646e-08
-5.2977775e-11
-1.2186354e-08
-3.4715625e-11
-7.8507174e-09
-2.1163848e-11
-4.9556383e-09
-1.1748948e-11
-3.0356161e-09
-5.6859316e-12
-1.7742956e-09
-2.1708352e-12
-9.5652782e-10
-4.773622e-13
-4.3602854e-10
-1.1345408e-10
-1.0357543e-08
-4.2242635e-05
-1.8286358e-08
-3.4986425e-05
-2.2364371e-08
-2.8104669e-05
-1.960028e-08
-2.1311718e-05
-1.0198214e-08
-1.4569222e-05
-3.115397e-09
-9.3689649e-06
9.8012571e-12
-6.107432e-06
1.2863732e-09
-4.0903593e-06
1.5845787e-09
-2.8113863e-06
1.3381145e-09
-1.9719802e-06
9.0825859e-10
-1.3996383e-06
5.3424213e-10
-9.7891467e-07
2.8022988e-10
-6.6730542e-07
1.1113681e-10
-4.5371291e-07
4.1116917e-12
-3.0789167e-07
-5.509595e-11
-2.0830707e-07
-8.2156518e-11
-1.4066341e-07
-8.8743602e-11
-9.4741001e-08
-8.2708641e-11
-6.3588265e-08
-7.0353418e-11
-4.2504657e-08
-5.564581e-11
-2.8265745e-08
-4.1404936e-11
-1.8662974e-08
-2.8975355e-11
-1.2198813e-08
-1.904534e-11
-7.8606998e-09
-1.1605483e-11
-4.9630957e-09
-6.4359457e-12
-3.0408151e-09
-3.0853868e-12
-1.7776433e-09
-1.1548543e-12
-9.5845949e-10
-2.4064262e-13
-4.3694356e-10
-1.1369473e-10
-1.0977213e-08
-4.2231658e-05
-1.952747e-08
-3.4977875e-05
-2.365024e-08
-2.8100546e-05
-1.9639165e-08
-2.1315729e-05
-8.9583661e-09
-1.4579903e-05
-1.6015135e-09
-9.3763218e-06
1.3972544e-09
-6.1104306e-06
2.4958836e-09
-4.091458e-06
2.5715837e-09
-2.8114619e-06
2.1283524e-09
-1.9715371e-06
1.5298819e-09
-1.3990397e-06
1.0116168e-09
-9.7839657e-07
6.5423489e-10
-6.6694794e-07
4.1869934e-10
-4.5347755e-07
2.6877537e-10
-3.077417e-07
1.7896309e-10
-2.0821743e-07
1.2415533e-10
-1.4060859e-07
8.9067509e-11
-9.470605e-08
6.5340128e-11
-6.3564536e-08
4.7985228e-11
-4.2487397e-08
3.4795569e-11
-2.8252557e-08
2.4488547e-11
-1.8652724e-08
1.6603348e-11
-1.219093e-08
1.0678806e-11
-7.8548086e-09
6.4444393e-12
-4.95887e-09
3.5553156e-12
-3.0379377e-09
1.7070878e-12
-1.7758138e-09
6.413998e-13
-9.574091e-10
1.321814e-13
-4.3644521e-10
-1.1356254e-10
-1.1452017e-08
-4.2220206e-05
-2.0370631e-08
-3.4968956e-05
-2.4433074e-08
-2.8096484e-05
-1.9679394e-08
-2.1320483e-05
-8.2649856e-09
-1.4591317e-05
-6.8765154e-10
-9.3838992e-06
2.4212949e-09
-6.1135394e-06
3.4527611e-09
-4.0924895e-06
3.3563579e-09
-2.8113654e-06
2.7604471e-09
-1.9709413e-06
2.0306405e-09
-1.3983098e-06
1.3818341e-09
-9.7774791e-07
9.1031539e-10
-6.6647635e-07
5.8528626e-10
-4.5315267e-07
3.6544399e-10
-3.0752181e-07
2.2218324e-10
-2.0807431e-07
1.3092704e-10
-1.405173e-07
7.3817359e-11
-9.464905e-08
3.9369596e-11
-6.3530077e-08
1.9383719e-11
-4.2467479e-08
8.5095045e-12
-2.8241677e-08
2.965944e-12
-1.8647217e-08
4.8330734e-13
-1.2188445e-08
-4.3468697e-13
-7.853905e-09
-5.9015067e-13
-4.9587091e-09
-4.7274785e-13
-3.0380628e-09
-2.7167431e-13
-1.775998e-09
-1.1397871e-13
-9.5755601e-10
-2.4030708e-14
-4.365275e-10
-1.1358658e-10
-1.1737728e-08
-4.2208468e-05
-2.0785728e-08
-3.4959908e-05
-2.4695043e-08
-2.8092574e-05
-1.9556371e-08
-2.1325621e-05
-7.8689639e-09
-1.4603004e-05
-2.0391986e-10
-9.3915642e-06
3.03217e-09
-6.1167754e-06
4.006489e-09
-4.0934639e-06
3.8189954e-09
-2.8111778e-06
3.1452031e-09
-1.9702677e-06
2.3478334e-09
-1.3975123e-06
1.6299558e-09
-9.7703015e-07
1.0976363e-09
-6.6594396e-07
7.2748643e-10
-4.5278264e-07
4.7497348e-10
-3.0726924e-07
3.0821486e-10
-2.0790766e-07
1.9964961e-10
-1.4040871e-07
1.2902767e-10
-9.4578524e-08
8.3303841e-11
-6.348434e-08
5.3539046e-11
-4.2437791e-08
3.4196892e-11
-2.8222334e-08
2.1508907e-11
-1.8634583e-08
1.3264429e-11
-1.2180207e-08
7.8989759e-12
-7.8485777e-09
4.491351e-12
-4.9553197e-09
2.3729918e-12
-3.0359661e-09
1.1068723e-12
-1.77476e-09
4.0812197e-13
-9.5688233e-10
8.0942089e-14
-4.3621811e-10
-1.1350563e-10
-1.190502e-08
-4.2196563e-05
-2.0990077e-08
-3.4950823e-05
-2.4776101e-08
-2.8088788e-05
-1.9449184e-08
-2.1330948e-05
-7.6330921e-09
-1.461482e-05
8.9335124e-11
-9.3992867e-06
3.4164296e-09
-6.1201025e-06
4.354054e-09
-4.0944016e-06
4.1121908e-09
-2.8109358e-06
3.3914455e-09
-1.969547e-06
2.5510427e-09
-1.3966718e-06
1.7875703e-09
-9.7626679e-07
1.2134483e-09
-6.6536977e-07
8.104969e-10
-4.523798e-07
5.329064e-10
-3.0699161e-07
3.4724143e-10
-2.077221e-07
2.2476382e-10
-1.402862e-07
1.4427865e-10
-9.4498121e-08
9.1886092e-11
-6.3431933e-08
5.792124e-11
-4.2403883e-08
3.610566e-11
-2.8200517e-08
2.2110673e-11
-1.8620627e-08
1.324725e-11
-1.217135e-08
7.666054e-12
-7.84302e-09
4.2344931e-12
-4.9518919e-09
2.1617435e-12
-3.0339074e-09
9.844177e-13
-1.7735759e-09
3.5677437e-13
-9.5625182e-10
7.3777889e-14
-4.3593308e-10
-1.1343186e-10
-1.1994724e-08
-4.2184569e-05
-2.1074724e-08
-3.4941744e-05
-2.477402e-08
-2.8085089e-05
-1.9364446e-08
-2.1336358e-05
-7.4905542e-09
-1.4626694e-05
2.6864442e-10
-9.4070459e-06
3.659304e-09
-6.1234931e-06
4.5741362e-09
-4.0953165e-06
4.2995786e-09
-2.8106612e-06
3.5506002e-09
-1.9687981e-06
2.6836913e-09
-1.3958049e-06
1.8917943e-09
-9.7547498e-07
1.2915364e-09
-6.6476945e-07
8.6812815e-10
-4.5195648e-07
5.7502803e-10
-3.0669846e-07
3.7778447e-10
-2.0752494e-07
2.4676396e-10
-1.4015515e-07
1.6003227e-10
-9.4411459e-08
1.0305857e-10
-6.3374946e-08
6.5746285e-11
-4.2366622e-08
4.1485412e-11
-2.8176251e-08
2.5722248e-11
-1.8604897e-08
1.5599866e-11
-1.2161226e-08
9.1387483e-12
-7.8365793e-09
5.1085316e-12
-4.947867e-09
2.6548491e-12
-3.0314612e-09
1.2197586e-12
-1.7721544e-09
4.4530462e-13
-9.5548848e-10
9.024083e-14
-4.3558591e-10
-1.1334161e-10
-1.2038432e-08
-4.217253e-05
-2.1099043e-08
-3.4932683e-05
-2.4743969e-08
-2.8081444e-05
-1.9307698e-08
-2.1341794e-05
-7.4091628e-09
-1.4638593e-05
3.7922473e-10
-9.4148344e-06
3.814588e-09
-6.1269284e-06
4.7157991e-09
-4.0962178e-06
4.421274e-09
-2.8103666e-06
3.6543428e-09
-1.9680313e-06
2.7703029e-09
-1.3949208e-06
1.9598919e-09
-9.7466465e-07
1.3424096e-09
-6.6415192e-07
9.0541494e-10
-4.5151957e-07
6.0185888e-10
-3.0639486e-07
3.9674141e-10
-2.073199e-07
2.5989821e-10
-1.4001828e-07
1.6895511e-10
-9.4320576e-08
1.0898753e-10
-6.3314963e-08
6.9608081e-11
-4.232728e-08
4.3931458e-11
-2.8150567e-08
2.7232392e-11
-1.8588218e-08
1.6488314e-11
-1.2150479e-08
9.6383741e-12
-7.8297372e-09
5.365314e-12
-4.9435897e-09
2.7605813e-12
-3.0288611e-09
1.2621835e-12
-1.7706434e-09
4.5909248e-13
-9.5467717e-10
9.5930825e-14
-4.3521692e-10
-1.1324568e-10
-1.2056289e-08
-4.2160474e-05
-2.1094743e-08
-3.4923645e-05
-2.4708509e-08
-2.807783e-05
-1.9276677e-08
-2.1347226e-05
-7.3693195e-09
-1.46505e-05
4.4631925e-10
-9.42265e-06
3.9139721e-09
-6.130396e-06
4.8080726e-09
-4.097112e-06
4.5013983e-09
-2.8100599e-06
3.7228655e-09
-1.9672528e-06
2.8278166e-09
-1.3940257e-06
2.0053374e-09
-9.7384225e-07
1.376606e-09
-6.6352313e-07
9.3073351e-10
-4.5107377e-07
6.2032113e-10
-3.0608441e-07
4.1001852e-10
-2.0710967e-07
2.6933681e-10
-1.3987758e-07
1.7558401e-10
-9.4226892e-08
1.1359503e-10
-6.3252966e-08
7.2763903e-11
-4.2286508e-08
4.6075131e-11
-2.8123881e-08
2.865853e-11
-1.8570846e-08
1.7431188e-11
-1.2139261e-08
1.0241416e-11
-7.8225807e-09
5.7420043e-12
-4.9391079e-09
2.9941147e-12
-3.0261327e-09
1.3812418e-12
-1.7690561e-09
5.0534744e-13
-9.5382406e-10
1.0095395e-13
-4.3482869e-10
-1.1314473e-10
-1.2060782e-08
-4.2148413e-05
-2.1079276e-08
-3.4914626e-05
-2.4677454e-08
-2.8074232e-05
-1.9267263e-08
-2.1352636e-05
-7.358603e-09
-1.4662409e-05
4.8323403e-10
-9.4304919e-06
3.9770564e-09
-6.1338898e-06
4.8684741e-09
-4.0980035e-06
4.5543524e-09
-2.8097457e-06
3.7684594e-09
-1.966467e-06
2.8662847e-09
-1.3931234e-06
2.035803e-09
-9.7301184e-07
1.3995403e-09
-6.6288682e-07
9.4766209e-10
-4.5062197e-07
6.3259591e-10
-3.0576931e-07
4.1876627e-10
-2.0689591e-07
2.7544914e-10
-1.3973424e-07
1.7977506e-10
-9.4131277e-08
1.1640317e-10
-6.3189583e-08
7.460901e-11
-4.2244757e-08
4.7242864e-11
-2.8096515e-08
2.9374738e-11
-1.8553009e-08
1.7837621e-11
-1.212773e-08
1.0454997e-11
-7.8152182e-09
5.8364263e-12
-4.9344938e-09
3.0133197e-12
-3.0233221e-09
1.3816407e-12
-1.76742e-09
5.0352985e-13
-9.5294446e-10
1.0416884e-13
-4.3442827e-10
-1.1304056e-10
-1.2059337e-08
-4.2136354e-05
-2.1061756e-08
-3.4905624e-05
-2.4655037e-08
-2.8070638e-05
-1.9274816e-08
-2.1358016e-05
-7.3687087e-09
-1.4674315e-05
4.9909112e-10
-9.4383597e-06
4.0159108e-09
-6.1374066e-06
4.9076759e-09
-4.0988953e-06
4.5895078e-09
-2.8094275e-06
3.7990384e-09
-1.9656766e-06
2.8922637e-09
-1.3922166e-06
2.0565373e-09
-9.7217618e-07
1.4152076e-09
-6.6224545e-07
9.5931245e-10
-4.5016613e-07
6.4109683e-10
-3.0545106e-07
4.2487779e-10
-2.0667975e-07
2.797622e-10
-1.395891e-07
1.8277659e-10
-9.4034343e-08
1.1845479e-10
-6.3125249e-08
7.5990461e-11
-4.2202333e-08
4.8159129e-11
-2.8068679e-08
2.9973121e-11
-1.853485e-08
1.8225283e-11
-1.2115982e-08
1.0701458e-11
-7.8077118e-09
5.9892663e-12
-4.9297869e-09
3.1137473e-12
-3.0204537e-09
1.4312028e-12
-1.7657498e-09
5.2267434e-13
-9.5204622e-10
1.06401e-13
-4.340193e-10
-1.1293416e-10
-1.2056063e-08
-4.2124298e-05
-2.1046372e-08
-3.4896633e-05
-2.4641702e-08
-2.8067043e-05
-1.9296282e-08
-2.1363362e-05
-7.3941693e-09
-1.4686217e-05
4.9959134e-10
-9.4462535e-06
4.0381554e-09
-6.1409451e-06
4.9325749e-09
-4.0997897e-06
4.6128663e-09
-2.8091078e-06
3.8196859e-09
-1.9648835e-06
2.9099114e-09
-1.3913068e-06
2.0706977e-09
-9.7133702e-07
1.4259222e-09
-6.6160063e-07
9.6729796e-10
-4.4970757e-07
6.4691176e-10
-3.0513064e-07
4.290432e-10
-2.0646194e-07
2.8267246e-10
-1.3944271e-07
1.8477091e-10
-9.3936486e-08
1.1978339e-10
-6.3060248e-08
7.6857969e-11
-4.2159435e-08
4.8699228e-11
-2.8040513e-08
3.0299051e-11
-1.8516464e-08
1.8400501e-11
-1.2104081e-08
1.0787598e-11
-7.8001046e-09
6.0192303e-12
-4.9250151e-09
3.1067117e-12
-3.0175447e-09
1.4227584e-12
-1.7640555e-09
5.1821365e-13
-9.5113485e-10
1.0801346e-13
-4.3360426e-10
-1.1282615e-10
-1.2053156e-08
-4.2112245e-05
-2.1034576e-08
-3.4887652e-05
-2.4636731e-08
-2.8063441e-05
-1.9329214e-08
-2.1368669e-05
-7.4311794e-09
-1.4698115e-05
4.8898069e-10
-9.4541737e-06
4.0488582e-09
-6.144505e-06
4.9475705e-09
-4.1006885e-06
4.6279012e-09
-2.8087881e-06
3.8335896e-09
-1.9640892e-06
2.9219801e-09
-1.3903951e-06
2.0804475e-09
-9.7049554e-07
1.4333829e-09
-6.6095353e-07
9.7292263e-10
-4.4924717e-07
6.5109196e-10
-3.0480878e-07
4.3211244e-10
-2.0624302e-07
2.8489998e-10
-1.3929547e-07
1.8637001e-10
-9.3838013e-08
1.2092884e-10
-6.2994799e-08
7.7664804e-11
-4.211622e-08
4.9276886e-11
-2.8012126e-08
3.0701377e-11
-1.8497926e-08
1.8692048e-11
-1.2092077e-08
1.0989552e-11
-7.7924298e-09
6.1609111e-12
-4.9201998e-09
3.2091768e-12
-3.0146088e-09
1.4789022e-12
-1.7623453e-09
5.4082433e-13
-9.5021484e-10
1.0902531e-13
-4.3318528e-10
-1.1271712e-10
-1.2051617e-08
-4.2100194e-05
-2.1026947e-08
-3.4878677e-05
-2.4639381e-08
-2.8059828e-05
-1.937096e-08
-2.1373938e-05
-7.4768559e-09
-1.4710009e-05
4.7024037e-10
-9.4621208e-06
4.0512305e-09
-6.148086e-06
4.9555868e-09
-4.1015929e-06
4.6369935e-09
-2.8084694e-06
3.8425812e-09
-1.9632948e-06
2.9299506e-09
-1.3894825e-06
2.0869173e-09
-9.6965256e-07
1.4383622e-09
-6.6030494e-07
9.7664715e-10
-4.487855e-07
6.5382169e-10
-3.0448592e-07
4.3407209e-10
-2.0602332e-07
2.8626015e-10
-1.3914765e-07
1.8729286e-10
-9.3739093e-08
1.2152639e-10
-6.2929024e-08
7.8042238e-11
-4.2072772e-08
4.9491092e-11
-2.7983575e-08
3.0815574e-11
-1.8479276e-08
1.8730911e-11
-1.2079997e-08
1.0990244e-11
-7.7847045e-09
6.1392125e-12
-4.9153519e-09
3.1736342e-12
-3.0116526e-09
1.4554779e-12
-1.760623e-09
5.306355e-13
-9.4928825e-10
1.0984294e-13
-4.3276325e-10
-1.1260728e-10
-1.2051882e-08
-4.2088142e-05
-2.1023563e-08
-3.4869705e-05
-2.4648567e-08
-2.8056203e-05
-1.9419082e-08
-2.1379167e-05
-7.5289388e-09
-1.4721899e-05
4.4546985e-10
-9.4700953e-06
4.0477435e-09
-6.1516882e-06
4.9585987e-09
-4.1025038e-06
4.6419598e-09
-2.8081528e-06
3.8481923e-09
-1.9625011e-06
2.9351047e-09
-1.3885694e-06
2.0911537e-09
-9.6880866e-07
1.4417587e-09
-6.5965552e-07
9.7922302e-10
-4.4832302e-07
6.5576716e-10
-3.0416245e-07
4.355075e-10
-2.0580312e-07
2.8729193e-10
-1.3899942e-07
1.8802886e-10
-9.3639874e-08
1.2203893e-10
-6.2863028e-08
7.8397421e-11
-4.2029164e-08
4.9735211e-11
-2.7954911e-08
3.0983471e-11
-1.8460547e-08
1.8849959e-11
-1.2067864e-08
1.1074466e-11
-7.7769441e-09
6.1988664e-12
-4.9104814e-09
3.2217651e-12
-3.0086823e-09
1.4808277e-12
-1.7588924e-09
5.4080016e-13
-9.483571e-10
1.1038173e-13
-4.3233914e-10
-1.124969e-10
-1.2053988e-08
-4.2076088e-05
-2.1024054e-08
-3.4860735e-05
-2.4662772e-08
-2.8052565e-05
-1.9472754e-08
-2.1384357e-05
-7.586028e-09
-1.4733786e-05
4.163708e-10
-9.4780977e-06
4.0398743e-09
-6.1553117e-06
4.9579189e-09
-4.1034219e-06
4.6439958e-09
-2.8078388e-06
3.8512606e-09
-1.9617084e-06
2.9381438e-09
-1.3876562e-06
2.0937035e-09
-9.6796426e-07
1.4438542e-09
-6.5900564e-07
9.8082249e-10
-4.4786003e-07
6.5699116e-10
-3.038386e-07
4.3639844e-10
-2.0558257e-07
2.8790703e-10
-1.3885091e-07
1.8844322e-10
-9.3540448e-08
1.222991e-10
-6.2796878e-08
7.8556663e-11
-4.1985445e-08
4.9816117e-11
-2.7926169e-08
3.1021008e-11
-1.8441764e-08
1.8850245e-11
-1.2055694e-08
1.1060464e-11
-7.769159e-09
6.1750827e-12
-4.9055948e-09
3.191969e-12
-3.0057019e-09
1.4624998e-12
-1.7571558e-09
5.3297747e-13
-9.4742264e-10
1.1081085e-13
-4.3191346e-10
-1.1238609e-10
-1.2057843e-08
-4.206403e-05
-2.1027883e-08
-3.4851765e-05
-2.4681025e-08
-2.8048912e-05
-1.953103e-08
-2.1389507e-05
-7.6467356e-09
-1.474567e-05
3.8374658e-10
-9.4861282e-06
4.0287031e-09
-6.1589566e-06
4.9546787e-09
-4.1043479e-06
4.643927e-09
-2.807528e-06
3.8522961e-09
-1.9609168e-06
2.9395648e-09
-1.3867435e-06
2.0950579e-09
-9.6711979e-07
1.4450351e-09
-6.583556e-07
9.8183997e-10
-4.4739689e-07
6.5786026e-10
-3.035146e-07
4.3710744e-10
-2.0536187e-07
2.8847838e-10
-1.3870228e-07
1.8889358e-10
-9.344092e-08
1.226646e-10
-6.2730652e-08
7.8839162e-11
-4.194167e-08
5.0050817e-11
-2.7897387e-08
3.1199499e-11
-1.8422953e-08
1.9001874e-11
-1.2043505e-08
1.1175119e-11
-7.7613612e-09
6.2660086e-12
-4.9007e-09
3.2640211e-12
-3.0027164e-09
1.5044067e-12
-1.7554162e-09
5.5021601e-13
-9.4648659e-10
1.1097173e-13
-4.314871e-10
-1.1227512e-10
-1.2063241e-08
-4.2051967e-05
-2.1034605e-08
-3.4842794e-05
-2.4702908e-08
-2.8045243e-05
-1.9591999e-08
-2.1394618e-05
-7.7100902e-09
-1.4757552e-05
3.486524e-10
-9.4941869e-06
4.0151945e-09
-6.1626232e-06
4.949448e-09
-4.1052821e-06
4.6420979e-09
-2.8072207e-06
3.8518135e-09
-1.9601266e-06
2.9397097e-09
-1.3858313e-06
2.0954192e-09
-9.6627554e-07
1.4453938e-09
-6.5770556e-07
9.8218254e-10
-4.4693372e-07
6.5814238e-10
-3.0319055e-07
4.373186e-10
-2.051411e-07
2.8860995e-10
-1.3855357e-07
1.8896677e-10
-9.3341324e-08
1.2268492e-10
-6.266437e-08
7.8832013e-11
-4.1897854e-08
5.0013972e-11
-2.7868574e-08
3.1155411e-11
-1.840412e-08
1.8943735e-11
-1.2031302e-08
1.1119767e-11
-7.7535535e-09
6.2135716e-12
-4.8957988e-09
3.2143672e-12
-2.9997269e-09
1.474604e-12
-1.7536741e-09
5.3776866e-13
-9.4554919e-10
1.1115665e-13
-4.3106008e-10
-1.1216396e-10
-1.2069968e-08
-4.2039897e-05
-2.1043765e-08
-3.483382e-05
-2.4727522e-08
-2.8041559e-05
-1.96553e-08
-2.139969e-05
-7.7755758e-09
-1.4769432e-05
3.11787e-10
-9.5022743e-06
3.9996959e-09
-6.1663111e-06
4.9426677e-09
-4.1062251e-06
4.6390845e-09
-2.8069171e-06
3.8503513e-09
-1.9593379e-06
2.9390587e-09
-1.38492e-06
2.0951638e-09
-9.6543168e-07
1.4453009e-09
-6.5705568e-07
9.8220157e-10
-4.4647066e-07
6.5821578e-10
-3.0286656e-07
4.3741469e-10
-2.0492034e-07
2.8870236e-10
-1.3840485e-07
1.8905226e-10
-9.3241716e-08
1.2275507e-10
-6.2598075e-08
7.8892546e-11
-4.1854025e-08
5.0065041e-11
-2.783975e-08
3.1199845e-11
-1.8385278e-08
1.8985682e-11
-1.2019091e-08
1.1157591e-11
-7.7457409e-09
6.2465241e-12
-4.8908942e-09
3.2476195e-12
-2.9967352e-09
1.4930567e-12
-1.7519308e-09
5.453618e-13
-9.4461108e-10
1.1123041e-13
-4.3063276e-10
-1.1205273e-10
-1.2077734e-08
-4.2027819e-05
-2.105495e-08
-3.4824843e-05
-2.4753945e-08
-2.803786e-05
-1.9720889e-08
-2.1404723e-05
-7.8429581e-09
-1.478131e-05
2.7351466e-10
-9.5103908e-06
3.9827864e-09
-6.1700203e-06
4.9346585e-09
-4.107177e-06
4.6351686e-09
-2.8066176e-06
3.8481571e-09
-1.9585509e-06
2.9378018e-09
-1.3840096e-06
2.0943907e-09
-9.645883e-07
1.4447878e-09
-6.5640606e-07
9.8189421e-10
-4.4600781e-07
6.5801602e-10
-3.0254267e-07
4.3727896e-10
-2.0469964e-07
2.8859466e-10
-1.3825617e-07
1.8896449e-10
-9.3142118e-08
1.226728e-10
-6.2531783e-08
7.8822541e-11
-4.1810195e-08
4.9995219e-11
-2.7810924e-08
3.1140744e-11
-1.8366434e-08
1.8925473e-11
-1.2006878e-08
1.110688e-11
-7.7379265e-09
6.20148e-12
-4.8859883e-09
3.2062653e-12
-2.9937426e-09
1.4690833e-12
-1.7501868e-09
5.3541187e-13
-9.4367256e-10
1.1130273e-13
-4.3020521e-10
-1.1194143e-10
-1.2086346e-08
-4.2015733e-05
-2.1067888e-08
-3.4815861e-05
-2.4781976e-08
-2.8034146e-05
-1.9788102e-08
-2.1409717e-05
-7.912137e-09
-1.4793186e-05
2.343624e-10
-9.5185373e-06
3.9649243e-09
-6.1737509e-06
4.925783e-09
-4.1081379e-06
4.6304176e-09
-2.8063222e-06
3.8454379e-09
-1.9577659e-06
2.9361366e-09
-1.3831003e-06
2.093417e-09
-9.6374562e-07
1.4441795e-09
-6.5575681e-07
9.8156812e-10
-4.4554524e-07
6.5787538e-10
-3.0221897e-07
4.372548e-10
-2.0447907e-07
2.8864694e-10
-1.3810756e-07
1.890505e-10
-9.3042571e-08
1.2278555e-10
-6.2465524e-08
7.8933153e-11
-4.1766387e-08
5.0113067e-11
-2.7782112e-08
3.1242152e-11
-1.8347598e-08
1.9026059e-11
-1.1994671e-08
1.1189478e-11
-7.7301156e-09
6.2724024e-12
-4.8810846e-09
3.2665087e-12
-2.9907513e-09
1.5048658e-12
-1.7484436e-09
5.5026973e-13
-9.4273453e-10
1.1121964e-13
-4.2977791e-10
-1.1183021e-10
-1.2095655e-08
-4.2003637e-05
-2.1082286e-08
-3.4806875e-05
-2.4811606e-08
-2.8030417e-05
-1.9856111e-08
-2.1414673e-05
-7.9824501e-09
-1.4805059e-05
1.9434855e-10
-9.5267141e-06
3.9459721e-09
-6.1775025e-06
4.916194e-09
-4.1091081e-06
4.6249547e-09
-2.8060309e-06
3.8422215e-09
-1.9569832e-06
2.9340325e-09
-1.3821921e-06
2.0920723e-09
-9.6290369e-07
1.4432829e-09
-6.5510801e-07
9.8095324e-10
-4.4508294e-07
6.5744875e-10
-3.0189546e-07
4.3695986e-10
-2.0425862e-07
2.8842502e-10
-1.3795902e-07
1.8887884e-10
-9.2943063e-08
1.2264063e-10
-6.2399287e-08
7.8816006e-11
-4.1722592e-08
5.0005378e-11
-2.7753307e-08
3.115353e-11
-1.8328767e-08
1.8941473e-11
-1.1982466e-08
1.1119163e-11
-7.7223063e-09
6.212283e-12
-4.8761817e-09
3.2136759e-12
-2.9877606e-09
1.4738659e-12
-1.7467007e-09
5.3743316e-13
-9.4179662e-10
1.1122322e-13
-4.2935066e-10
-1.1171898e-10
-1.2105501e-08
-4.1991532e-05
-2.10975e-08
-3.4797883e-05
-2.4842549e-08
-2.8026672e-05
-1.9925233e-08
-2.141959e-05
-8.0538658e-09
-1.4816931e-05
1.5368155e-10
-9.5349217e-06
3.9262739e-09
-6.1812751e-06
4.9059415e-09
-4.1100878e-06
4.6190692e-09
-2.805744e-06
3.8387042e-09
-1.9562029e-06
2.9316965e-09
-1.3812851e-06
2.0904843e-09
-9.620625e-07
1.4422984e-09
-6.5445982e-07
9.8029748e-10
-4.4462098e-07
6.5702961e-10
-3.0157219e-07
4.3671176e-10
-2.0403834e-07
2.8827856e-10
-1.3781059e-07
1.8879915e-10
-9.2843618e-08
1.2260064e-10
-6.2333092e-08
7.8803399e-11
-4.1678822e-08
5.0009444e-11
-2.7724516e-08
3.1167774e-11
-1.8309944e-08
1.8964751e-11
-1.1970266e-08
1.1145442e-11
-7.7144999e-09
6.2385402e-12
-4.8712806e-09
3.2425848e-12
-2.9847708e-09
1.4903445e-12
-1.7449583e-09
5.4428618e-13
-9.4085899e-10
1.1118011e-13
-4.2892354e-10
-1.116078e-10
-1.2115755e-08
-4.1979416e-05
-2.111324e-08
-3.4788885e-05
-2.4874425e-08
-2.8022911e-05
-1.9995644e-08
-2.1424469e-05
-8.1264379e-09
-1.48288e-05
1.1272919e-10
-9.5431609e-06
3.9061094e-09
-6.1850684e-06
4.8952692e-09
-4.111077e-06
4.6128982e-09
-2.8054617e-06
3.8349412e-09
-1.9554249e-06
2.9291472e-09
-1.3803793e-06
2.088696e-09
-9.6122208e-07
1.4411281e-09
-6.5381224e-07
9.7947541e-10
-4.4415935e-07
6.5646756e-10
-3.0124918e-07
4.3632404e-10
-2.0381823e-07
2.8799659e-10
-1.3766226e-07
1.885916e-10
-9.2744239e-08
1.224395e-10
-6.226694e-08
7.8681702e-11
-4.163508e-08
4.9907761e-11
-2.7695744e-08
3.1089767e-11
-1.8291133e-08
1.8894776e-11
-1.1958074e-08
1.1090409e-11
-7.7066979e-09
6.1924164e-12
-4.8663822e-09
3.2026412e-12
-2.9817826e-09
1.4673831e-12
-1.7432168e-09
5.3481914e-13
-9.3992178e-10
1.1115385e-13
-4.2849658e-10
-1.1149665e-10
-1.2126389e-08
-4.196729e-05
-2.1129641e-08
-3.4779882e-05
-2.4907249e-08
-2.8019133e-05
-2.0066579e-08
-2.1429309e-05
-8.1997853e-09
-1.4840667e-05
7.1763955e-11
-9.5514324e-06
3.8855348e-09
-6.1888822e-06
4.8844154e-09
-4.1120759e-06
4.6065521e-09
-2.8051838e-06
3.8308671e-09
-1.9546493e-06
2.9263998e-09
-1.3794748e-06
2.0867988e-09
-9.603825e-07
1.4398713e-09
-6.5316531e-07
9.7868144e-10
-4.436982e-07
6.5602107e-10
-3.0092652e-07
4.3608839e-10
-2.0359834e-07
2.8790465e-10
-1.3751408e-07
1.8857797e-10
-9.264496e-08
1.2248763e-10
-6.2200858e-08
7.8748288e-11
-4.1591385e-08
4.9998384e-11
-2.7667003e-08
3.1172592e-11
-1.8272343e-08
1.8984461e-11
-1.1945895e-08
1.1165488e-11
-7.698905e-09
6.2591544e-12
-4.8614896e-09
3.2596924e-12
-2.978798e-09
1.5018213e-12
-1.7414775e-09
5.4917554e-13
-9.3898578e-10
1.1098396e-13
-4.280702e-10
-1.1138567e-10
-1.2137352e-08
-4.1955152e-05
-2.1146682e-08
-3.4770873e-05
-2.4940946e-08
-2.8015339e-05
-2.0137707e-08
-2.1434113e-05
-8.2738119e-09
-1.4852531e-05
3.0687906e-11
-9.5597369e-06
3.8646723e-09
-6.1927162e-06
4.8734173e-09
-4.1130847e-06
4.600043e-09
-2.8049104e-06
3.8264709e-09
-1.9538757e-06
2.9233634e-09
-1.3785717e-06
2.0846302e-09
-9.595438e-07
1.4383243e-09
-6.5251899e-07
9.7761953e-10
-4.4323753e-07
6.5530363e-10
-3.006042e-07
4.3558291e-10
-2.0337866e-07
2.8753354e-10
-1.3736603e-07
1.8830252e-10
-9.2545766e-08
1.2227225e-10
-6.2134832e-08
7.8583768e-11
-4.1547726e-08
4.9859801e-11
-2.7638286e-08
3.1064542e-11
-1.8253569e-08
1.8888225e-11
-1.1933727e-08
1.1088636e-11
-7.6911187e-09
6.1956934e-12
-4.8566011e-09
3.2056439e-12
-2.975816e-09
1.4703177e-12
-1.7397397e-09
5.3617938e-13
-9.3805058e-10
1.1090468e-13
-4.2764416e-10
-1.1127476e-10
-1.2148609e-08
-4.1943004e-05
-2.1164216e-08
-3.4761857e-05
-2.4974841e-08
-2.8011528e-05
-2.0209315e-08
-2.1438878e-05
-8.3482422e-09
-1.4864392e-05
-1.1177836e-11
-9.568074e-06
3.8434864e-09
-6.1965708e-06
4.8621466e-09
-4.1141033e-06
4.5934439e-09
-2.8046417e-06
3.8219895e-09
-1.9531043e-06
2.9202574e-09
-1.37767e-06
2.082443e-09
-9.5870601e-07
1.4367813e-09
-6.5187333e-07
9.7657191e-10
-4.4277735e-07
6.5462324e-10
-3.0028225e-07
4.3514558e-10
-2.0315922e-07
2.8725316e-10
-1.3721814e-07
1.8813134e-10
-9.2446678e-08
1.2217036e-10
-6.2068876e-08
7.8529815e-11
-4.1504112e-08
4.9836745e-11
-2.7609598e-08
3.1061356e-11
-1.8234813e-08
1.8900451e-11
-1.192157e-08
1.1108266e-11
-7.6833397e-09
6.2180015e-12
-4.8517171e-09
3.2323501e-12
-2.9728367e-09
1.4857445e-12
-1.7380034e-09
5.4263675e-13
-9.371162e-10
1.1079536e-13
-4.2721852e-10
-1.1116397e-10
-1.216012e-08
-4.1930844e-05
-2.1182195e-08
-3.4752835e-05
-2.5008843e-08
-2.8007702e-05
-2.0281455e-08
-2.1443606e-05
-8.4231664e-09
-1.487625e-05
-5.3607899e-11
-9.5764436e-06
3.8221189e-09
-6.2004466e-06
4.8507156e-09
-4.115132e-06
4.586753e-09
-2.8043777e-06
3.8174434e-09
-1.952335e-06
2.9170762e-09
-1.3767696e-06
2.080215e-09
-9.5786917e-07
1.4351765e-09
-6.5122828e-07
9.7546272e-10
-4.4231766e-07
6.5385691e-10
-2.9996064e-07
4.3461324e-10
-2.0294e-07
2.8686781e-10
-1.370704e-07
1.8785422e-10
-9.2347688e-08
1.2196149e-10
-6.2002985e-08
7.837612e-11
-4.1460541e-08
4.9713808e-11
-2.7580938e-08
3.0969404e-11
-1.8216075e-08
1.8821497e-11
-1.1909425e-08
1.1047396e-11
-7.6755678e-09
6.1683011e-12
-4.8468376e-09
3.1899997e-12
-2.9698599e-09
1.4615511e-12
-1.7362685e-09
5.3267946e-13
-9.3618258e-10
1.1072566e-13
-4.267932e-10
-1.1105324e-10
-1.2171777e-08
-4.1918672e-05
-2.1200785e-08
-3.4743806e-05
-2.5043472e-08
-2.8003859e-05
-2.0353606e-08
-2.1448295e-05
-8.4986156e-09
-1.4888105e-05
-9.6127116e-11
-9.5848461e-06
3.8006399e-09
-6.2043433e-06
4.8393229e-09
-4.1161707e-06
4.579972e-09
-2.8041184e-06
3.8129532e-09
-1.951568e-06
2.9139811e-09
-1.3758706e-06
2.0780976e-09
-9.5703331e-07
1.4337141e-09
-6.505839e-07
9.7452438e-10
-4.4185851e-07
6.5329001e-10
-2.9963941e-07
4.3429411e-10
-2.0272105e-07
2.8671433e-10
-1.3692283e-07
1.8779912e-10
-9.2248817e-08
1.2197844e-10
-6.1937174e-08
7.8421402e-11
-4.1417024e-08
4.9787743e-11
-2.7552314e-08
3.1041199e-11
-1.8197361e-08
1.8902137e-11
-1.1897295e-08
1.1116723e-11
-7.6678064e-09
6.2306188e-12
-4.8419647e-09
3.2442846e-12
-2.9668874e-09
1.4943193e-12
-1.7345362e-09
5.463577e-13
-9.3525033e-10
1.1053779e-13
-4.2636853e-10
-1.109427e-10
-1.2183493e-08
-4.1906489e-05
-2.1219974e-08
-3.4734769e-05
-2.5078508e-08
-2.8e-05
-2.0425739e-08
-2.1452948e-05
-8.5742461e-09
-1.4899956e-05
-1.3909041e-10
-9.5932812e-06
3.7789207e-09
-6.2082613e-06
4.8277151e-09
-4.1172195e-06
4.5729707e-09
-2.8038636e-06
3.8084043e-09
-1.9508035e-06
2.9108048e-09
-1.374973e-06
2.0758448e-09
-9.5619837e-07
1.4321365e-09
-6.4994018e-07
9.734257e-10
-4.4139982e-07
6.5252825e-10
-2.9931851e-07
4.3376178e-10
-2.0250232e-07
2.863251e-10
-1.367754e-07
1.8751347e-10
-9.2150039e-08
1.2175718e-10
-6.1871424e-08
7.8253671e-11
-4.1373547e-08
4.9648307e-11
-2.7523717e-08
3.0933368e-11
-1.8178665e-08
1.8807202e-11
-1.1885177e-08
1.1041334e-11
-7.6600522e-09
6.168727e-12
-4.8370964e-09
3.1918569e-12
-2.9639176e-09
1.4637899e-12
-1.7328055e-09
5.3377214e-13
-9.3431898e-10
1.1044507e-13
-4.2594426e-10
-1.1083226e-10
-1.2195337e-08
-4.1894293e-05
-2.12396e-08
-3.4725725e-05
-2.5113375e-08
-2.7996127e-05
-2.0498149e-08
-2.1457563e-05
-8.6504213e-09
-1.4911804e-05
-1.8247416e-10
-9.6017492e-06
3.7568796e-09
-6.2122007e-06
4.8158637e-09
-4.1182785e-06
4.5658995e-09
-2.8036137e-06
3.8037906e-09
-1.9500414e-06
2.9075602e-09
-1.3740768e-06
2.0736071e-09
-9.5536444e-07
1.4306608e-09
-6.4929724e-07
9.7243258e-10
-4.4094162e-07
6.5188431e-10
-2.9899796e-07
4.33356e-10
-2.0228382e-07
2.8607103e-10
-1.3662812e-07
1.8736244e-10
-9.2051362e-08
1.2167066e-10
-6.1805739e-08
7.82107e-11
-4.1330113e-08
4.9633536e-11
-2.7495146e-08
3.0935867e-11
-1.8159985e-08
1.8823473e-11
-1.187307e-08
1.1063452e-11
-7.6523048e-09
6.1926233e-12
-4.8322323e-09
3.2189975e-12
-2.9609504e-09
1.4796142e-12
-1.7310762e-09
5.4039389e-13
-9.3338839e-10
1.1034652e-13
-4.2552034e-10
-1.1072191e-10
-1.2207348e-08
-4.1882086e-05
-2.1259694e-08
-3.4716673e-05
-2.5148234e-08
-2.7992238e-05
-2.0570841e-08
-2.1462141e-05
-8.726912e-09
-1.4923648e-05
-2.2611905e-10
-9.61025e-06
3.7346561e-09
-6.2161615e-06
4.8039223e-09
-4.1193477e-06
4.558768e-09
-2.8033685e-06
3.7991485e-09
-1.9492818e-06
2.9042749e-09
-1.3731819e-06
2.0713508e-09
-9.5453154e-07
1.4291393e-09
-6.4865502e-07
9.7137595e-10
-4.4048389e-07
6.5115989e-10
-2.9867775e-07
4.3285555e-10
-2.0206555e-07
2.8571228e-10
-1.3648098e-07
1.8710366e-10
-9.1952777e-08
1.2147508e-10
-6.1740116e-08
7.8066249e-11
-4.1286719e-08
4.9517895e-11
-2.7466603e-08
3.0849402e-11
-1.8141324e-08
1.8749221e-11
-1.1860974e-08
1.1006267e-11
-7.6445647e-09
6.1459415e-12
-4.8273726e-09
3.1795987e-12
-2.9579858e-09
1.4569787e-12
-1.7293485e-09
5.3108864e-13
-9.3245858e-10
1.1027659e-13
-4.2509674e-10
-1.1061164e-10
-1.2219491e-08
-4.1869866e-05
-2.1280057e-08
-3.4707612e-05
-2.5183754e-08
-2.7988334e-05
-2.0643409e-08
-2.1466681e-05
-8.8037724e-09
-1.4935488e-05
-2.6989709e-10
-9.6187839e-06
3.7124882e-09
-6.2201438e-06
4.7921433e-09
-4.1204274e-06
4.5517186e-09
-2.8031281e-06
3.7944844e-09
-1.9485245e-06
2.9010305e-09
-1.3722884e-06
2.0691303e-09
-9.5369966e-07
1.4276601e-09
-6.4801355e-07
9.704313e-10
-4.4002669e-07
6.5060369e-10
-2.9835793e-07
4.3255322e-10
-2.0184754e-07
2.855804e-10
-1.3633402e-07
1.8706623e-10
-9.1854313e-08
1.2150861e-10
-6.1674575e-08
7.8124725e-11
-4.1243381e-08
4.9604077e-11
-2.7438097e-08
3.0930744e-11
-1.8122688e-08
1.883848e-11
-1.1848896e-08
1.1082238e-11
-7.6368358e-09
6.2136432e-12
-4.8225204e-09
3.2376114e-12
-2.9550258e-09
1.492258e-12
-1.7276235e-09
5.4582004e-13
-9.315303e-10
1.1006982e-13
-4.2467388e-10
-1.1050157e-10
-1.2231687e-08
-4.1857635e-05
-2.1300385e-08
-3.4698544e-05
-2.5219852e-08
-2.7984415e-05
-2.0716176e-08
-2.1471185e-05
-8.8810482e-09
-1.4947323e-05
-3.1381691e-10
-9.6273511e-06
3.6902194e-09
-6.2241479e-06
4.7803822e-09
-4.1215176e-06
4.544741e-09
-2.8028924e-06
3.7896173e-09
-1.9477694e-06
2.8975747e-09
-1.3713964e-06
2.0666647e-09
-9.5286878e-07
1.4258974e-09
-6.4737279e-07
9.6922367e-10
-4.3957005e-07
6.4977679e-10
-2.9803849e-07
4.3197833e-10
-2.0162978e-07
2.8516223e-10
-1.3618722e-07
1.8675715e-10
-9.1755946e-08
1.2126854e-10
-6.1609098e-08
7.7942278e-11
-4.1200085e-08
4.9452739e-11
-2.740962e-08
3.0813319e-11
-1.810407e-08
1.8735834e-11
-1.183683e-08
1.1000314e-11
-7.6291152e-09
6.1467497e-12
-4.8176733e-09
3.1810608e-12
-2.9520692e-09
1.4592349e-12
-1.7259004e-09
5.322115e-13
-9.3060307e-10
1.0995837e-13
-4.2425148e-10
-1.1039161e-10