/*--------------------------------*- C++ -*----------------------------------*\
| =========                 |                                                 |
| \\      /  F ield         | OpenFOAM: The Open Source CFD Toolbox           |
|  \\    /   O peration     | Version:  v2012                                 |
|   \\  /    A nd           | Website:  www.openfoam.com                      |
|    \\/     M anipulation  |                                                 |
\*---------------------------------------------------------------------------*/
FoamFile
{
    version     2.0;
    format      ascii;
    class       volScalarField;
    location    "500";
    object      rho;
}
// * * * * * * * * * * * * * * * * * * * * * * * * * * * * * * * * * * * * * //

dimensions      [1 -3 0 0 0 0 0];


internalField   nonuniform List<scalar> 
24000
(
22.532718
22.266854
21.232476
19.045468
15.207205
11.217221
8.2882232
6.2707701
4.891382
3.941758
3.2703282
2.7303559
2.2982694
2.0021927
1.7990707
1.6563778
1.5540282
1.4786687
1.4219191
1.3784515
1.3446761
1.3180871
1.2969168
1.2798992
1.26611
1.2548608
1.2456303
1.238017
1.2317081
1.2264573
22.534327
22.269035
21.237203
19.057611
15.229569
11.237365
8.3016354
6.2796717
4.897103
3.9451804
3.2723946
2.7317785
2.2992996
2.0029169
1.7995931
1.6567853
1.5543669
1.4789642
1.4221874
1.378703
1.3449174
1.3183221
1.2971478
1.2801275
1.2663362
1.2550853
1.2458529
1.2382377
1.2319267
1.2266738
22.535976
22.271283
21.242429
19.070862
15.251212
11.255192
8.3123931
6.2866327
4.9013307
3.9473786
3.2734235
2.7323461
2.2997209
2.0032418
1.7998578
1.6570115
1.5545635
1.4791411
1.4223517
1.3788587
1.3450673
1.3184682
1.2972916
1.2802699
1.2664776
1.2552258
1.2459925
1.2383763
1.2320643
1.22681
22.537629
22.273614
21.247845
19.084152
15.272279
11.27226
8.3227949
6.2932648
4.905078
3.9491984
3.2741272
2.7325587
2.2998168
2.0032901
1.7998754
1.6570144
1.5545557
1.4791265
1.4223349
1.3788432
1.3450552
1.31846
1.297287
1.2802682
1.2664782
1.255228
1.2459958
1.2383803
1.2320686
1.2268144
22.539284
22.275984
21.253338
19.097429
15.293053
11.288949
8.3331734
6.299549
4.9084493
3.9507085
3.2745677
2.7325148
2.2996977
2.0031893
1.799799
1.6569673
1.554531
1.479118
1.4223383
1.3788554
1.3450736
1.318483
1.2973134
1.2802971
1.2665089
1.25526
1.2460286
1.2384135
1.2321019
1.2268475
22.540939
22.278378
21.258851
19.110641
15.313659
11.30546
8.3435603
6.3056238
4.9116047
3.9520415
3.2748513
2.7323087
2.2994312
2.0029719
1.7996295
1.6568422
1.5544376
1.4790467
1.4222831
1.3788126
1.3450403
1.3184569
1.2972928
1.2802806
1.2664955
1.2552489
1.2460191
1.238405
1.232094
1.2268399
22.542593
22.280785
21.264362
19.123785
15.334167
11.321881
8.3539656
6.3115711
4.914628
3.9532655
3.2750365
2.7320006
2.2990742
2.0026854
1.7994092
1.6566798
1.5543168
1.478955
1.4222124
1.3787573
1.3449963
1.3184213
1.2972635
1.280256
1.2664743
1.2552302
1.2460021
1.2383892
1.2320789
1.2268252
22.544244
22.283197
21.26986
19.136866
15.354614
11.338275
8.3643867
6.3174438
4.9175716
3.9544221
3.2751589
2.7316268
2.2986578
2.0023527
1.7991536
1.6564899
1.5541742
1.4788452
1.4221261
1.3786882
1.3449398
1.3183741
1.2972231
1.2802207
1.2664429
1.2552015
1.2459754
1.2383639
1.2320544
1.2268011
22.545892
22.285612
21.275343
19.149891
15.375021
11.354671
8.3748247
6.3232742
4.9204674
3.9555355
3.275241
2.7312104
2.2982029
2.0019907
1.7988757
1.656283
1.5540184
1.4787248
1.4220311
1.3786116
1.3448766
1.3183208
1.2971771
1.2801801
1.2664062
1.2551677
1.2459437
1.2383336
1.2320251
1.2267723
22.547537
22.288027
21.280809
19.162868
15.395406
11.371087
8.385286
6.3290828
4.9233346
3.9566215
3.2752971
2.7307656
2.2977224
2.0016089
1.7985827
1.6560646
1.5538535
1.478597
1.4219299
1.3785296
1.3448086
1.3182631
1.2971269
1.2801355
1.2663657
1.2551302
1.2459084
1.2382998
1.2319923
1.22674
22.549179
22.290442
21.286259
19.175799
15.415776
11.387531
8.395775
6.3348832
4.9261851
3.9576905
3.2753362
2.730302
2.2972246
2.0012138
1.7982796
1.6558386
1.5536828
1.4784646
1.4218249
1.3784443
1.3447377
1.3182026
1.2970742
1.2800885
1.2663229
1.2550905
1.245871
1.2382639
1.2319574
1.2267057
22.550817
22.292856
21.291695
19.188687
15.436139
11.404009
8.4062947
6.3406839
4.9290274
3.9587492
3.2753641
2.7298259
2.296715
2.0008099
1.7979697
1.6556075
1.5535081
1.478329
1.4217172
1.3783568
1.3446648
1.3181404
1.2970198
1.2800399
1.2662787
1.2550494
1.2458321
1.2382267
1.2319211
1.2266701
22.552452
22.295269
21.297117
19.201538
15.4565
11.420525
8.4168498
6.3464912
4.9318676
3.9598021
3.2753846
2.7293409
2.2961971
2.0003997
1.7976551
1.655373
1.5533307
1.4781913
1.4216078
1.3782678
1.3445906
1.318077
1.2969644
1.2799904
1.2662335
1.2550074
1.2457924
1.2381885
1.231884
1.2266336
22.554083
22.297681
21.302525
19.214352
15.476862
11.437081
8.4274407
6.352309
4.9347092
3.9608531
3.2754003
2.7288496
2.2956733
1.9999852
1.7973372
1.655136
1.5531514
1.4780522
1.4214971
1.3781777
1.3445155
1.3180129
1.2969083
1.2799402
1.2661876
1.2549647
1.2457521
1.2381498
1.2318463
1.2265966
22.555711
22.300092
21.30792
19.22713
15.497228
11.45368
8.4380703
6.3581402
4.9375543
3.9619037
3.275413
2.728354
2.2951458
1.9995675
1.7970171
1.6548973
1.5529709
1.4779121
1.4213858
1.3780871
1.34444
1.3179483
1.2968517
1.2798896
1.2661415
1.2549218
1.2457115
1.2381108
1.2318084
1.2265592
22.557335
22.302503
21.313302
19.239874
15.517599
11.470323
8.4487395
6.3639871
4.9404051
3.9629565
3.2754241
2.7278552
2.2946161
1.9991475
1.7966956
1.6546576
1.5527895
1.4777714
1.421274
1.3779962
1.3443642
1.3178834
1.296795
1.2798388
1.2660951
1.2548787
1.2456707
1.2380716
1.2317703
1.2265218
22.558956
22.304913
21.31867
19.252587
15.537977
11.487011
8.4594491
6.369851
4.9432634
3.9640112
3.2754344
2.7273543
2.2940846
1.9987262
1.7963734
1.6544172
1.5526076
1.4776304
1.4211619
1.377905
1.3442882
1.3178185
1.2967382
1.279788
1.2660487
1.2548355
1.2456298
1.2380324
1.2317322
1.2264843
22.560573
22.307322
21.324027
19.265266
15.558363
11.503748
8.4701997
6.3757333
4.9461297
3.9650682
3.2754448
2.7268522
2.2935517
1.9983042
1.7960506
1.6541763
1.5524254
1.4774892
1.4210496
1.3778138
1.3442121
1.3177535
1.2966813
1.2797372
1.2660023
1.2547923
1.245589
1.2379932
1.231694
1.2264467
22.562187
22.309732
21.329373
19.277912
15.578757
11.520531
8.4809922
6.3816345
4.9490044
3.9661283
3.2754558
2.7263496
2.293018
1.9978816
1.7957275
1.6539353
1.5522432
1.4773479
1.4209374
1.3777226
1.3441362
1.3176886
1.2966246
1.2796865
1.265956
1.2547493
1.2455483
1.2379541
1.231656
1.2264094
22.563797
22.312141
21.334707
19.290529
15.59916
11.537363
8.4918258
6.3875557
4.9518885
3.9671919
3.2754678
2.7258467
2.2924837
1.9974589
1.7954042
1.6536942
1.5520609
1.4772067
1.4208253
1.3776315
1.3440603
1.3176239
1.2965679
1.2796358
1.2659098
1.2547063
1.2455077
1.2379151
1.2316181
1.2263721
22.565405
22.31455
21.34003
19.303115
15.619573
11.554244
8.5027019
6.3934974
4.9547828
3.9682594
3.2754812
2.7253438
2.2919491
1.9970361
1.7950809
1.6534532
1.5518789
1.4770657
1.4207133
1.3775406
1.3439846
1.3175593
1.2965115
1.2795854
1.2658638
1.2546636
1.2454673
1.2378764
1.2315804
1.226335
22.567009
22.316959
21.345343
19.315669
15.639994
11.571175
8.5136201
6.3994595
4.9576873
3.969332
3.2754961
2.7248416
2.2914144
1.9966134
1.7947576
1.6532123
1.5516969
1.4769247
1.4206015
1.3774499
1.3439091
1.3174949
1.2964552
1.2795352
1.265818
1.2546211
1.245427
1.2378377
1.2315429
1.2262981
22.568609
22.319367
21.350647
19.328192
15.660425
11.588158
8.52458
6.4054432
4.960602
3.9704095
3.2755129
2.72434
2.2908801
1.9961907
1.7944345
1.6529717
1.5515153
1.4767841
1.4204899
1.3773594
1.3438339
1.3174307
1.2963992
1.2794852
1.2657724
1.2545787
1.245387
1.2377994
1.2315056
1.2262614
22.570207
22.321775
21.35594
19.340687
15.680865
11.605191
8.5355823
6.4114483
4.9635274
3.9714926
3.2755316
2.7238389
2.2903466
1.9957682
1.7941116
1.6527314
1.5513339
1.4766436
1.4203786
1.3772691
1.3437588
1.3173667
1.2963434
1.2794354
1.2657271
1.2545366
1.2453472
1.2377612
1.2314685
1.2262249
22.571801
22.324183
21.361223
19.353152
15.701314
11.622276
8.5466262
6.4174749
4.9664642
3.9725812
3.2755523
2.7233385
2.2898136
1.995346
1.7937891
1.6524914
1.5511528
1.4765034
1.4202676
1.3771792
1.3436841
1.3173031
1.2962879
1.2793859
1.265682
1.2544948
1.2453077
1.2377233
1.2314317
1.2261887
22.573393
22.326591
21.366494
19.365585
15.721773
11.639415
8.5577114
6.4235239
4.9694119
3.9736745
3.2755753
2.7228388
2.2892811
1.9949244
1.7934673
1.6522518
1.550972
1.4763635
1.4201569
1.3770894
1.3436095
1.3172396
1.2962325
1.2793365
1.265637
1.2544531
1.2452684
1.2376855
1.231395
1.2261526
22.574981
22.328998
21.371755
19.37799
15.74224
11.656607
8.5688376
6.4295947
4.9723704
3.9747726
3.2756005
2.7223401
2.2887491
1.9945034
1.793146
1.6520126
1.5507915
1.4762239
1.4200464
1.377
1.3435353
1.3171764
1.2961775
1.2792875
1.2655924
1.2544117
1.2452293
1.2376481
1.2313586
1.2261168
22.576566
22.331406
21.377005
19.390366
15.762715
11.673854
8.580005
6.4356882
4.9753405
3.9758755
3.2756282
2.7218424
2.2882176
1.994083
1.7928252
1.6517738
1.5506114
1.4760847
1.4199363
1.3769108
1.3434613
1.3171135
1.2961227
1.2792387
1.2655481
1.2543706
1.2451905
1.2376109
1.2313224
1.2260813
22.578149
22.333813
21.382245
19.402712
15.783199
11.691156
8.5912131
6.4418041
4.9783224
3.9769836
3.2756583
2.721346
2.2876867
1.9936634
1.792505
1.6515355
1.5504317
1.4759459
1.4198265
1.376822
1.3433876
1.3170509
1.2960682
1.2791902
1.265504
1.2543298
1.2451519
1.2375739
1.2312865
1.226046
22.579728
22.33622
21.387475
19.415027
15.803692
11.708513
8.6024627
6.4479429
4.9813155
3.9780971
3.2756908
2.7208506
2.2871563
1.9932442
1.7921852
1.6512976
1.5502523
1.4758073
1.419717
1.3767334
1.3433142
1.3169885
1.2960139
1.2791419
1.2654601
1.2542891
1.2451136
1.2375372
1.2312508
1.2260109
22.581305
22.338627
21.392695
19.427315
15.824192
11.725926
8.6137539
6.4541046
4.98432
3.9792165
3.2757259
2.7203563
2.286627
1.9928257
1.791866
1.6510601
1.5500733
1.4756692
1.4196079
1.3766452
1.3432411
1.3169265
1.29596
1.2790939
1.2654165
1.2542487
1.2450755
1.2375007
1.2312154
1.225976
22.582878
22.341032
21.397905
19.439573
15.8447
11.743394
8.6250865
6.4602894
4.9873366
3.9803416
3.2757635
2.7198638
2.2860988
1.9924077
1.7915472
1.6508231
1.5498947
1.4755314
1.419499
1.3765572
1.3431683
1.3168647
1.2959063
1.2790461
1.2653731
1.2542086
1.2450377
1.2374645
1.2311802
1.2259414
22.584449
22.343438
21.403106
19.451801
15.865215
11.760917
8.6364611
6.4664977
4.9903652
3.981473
3.2758036
2.7193726
2.2855716
1.9919904
1.791229
1.6505866
1.5497166
1.475394
1.4193905
1.3764696
1.3430957
1.3168032
1.2958528
1.2789987
1.2653301
1.2541687
1.2450001
1.2374285
1.2311453
1.2259071
22.586017
22.345842
21.408298
19.463999
15.885738
11.778496
8.6478777
6.4727291
4.9934054
3.9826093
3.2758464
2.7188826
2.2850451
1.9915738
1.7909115
1.6503506
1.5495388
1.4752568
1.4192822
1.3763821
1.3430234
1.3167418
1.2957996
1.2789514
1.2652871
1.254129
1.2449627
1.2373927
1.2311105
1.2258729
22.587582
22.348246
21.41348
19.47617
15.906266
11.796131
8.6593368
6.4789846
4.9964574
3.9837506
3.2758917
2.718394
2.2845195
1.9911583
1.7905947
1.6501152
1.5493615
1.4751201
1.4191743
1.3762951
1.3429514
1.3166808
1.2957467
1.2789044
1.2652445
1.2540896
1.2449256
1.2373572
1.231076
1.2258389
22.589145
22.35065
21.418651
19.488311
15.926802
11.813822
8.670838
6.4852635
4.9995218
3.984897
3.2759397
2.7179067
2.2839948
1.9907435
1.7902787
1.6498803
1.5491846
1.4749837
1.4190667
1.3762083
1.3428797
1.3166201
1.295694
1.2788576
1.2652022
1.2540504
1.2448887
1.2373218
1.2310417
1.2258052
22.590704
22.353052
21.423813
19.500422
15.947343
11.831568
8.6823823
6.4915664
5.0025985
3.9860486
3.2759902
2.7174207
2.2834709
1.9903298
1.7899635
1.649646
1.5490082
1.4748477
1.4189595
1.3761218
1.3428083
1.3165597
1.2956416
1.2788112
1.2651601
1.2540115
1.2448521
1.2372868
1.2310076
1.2257718
22.592261
22.355454
21.428963
19.512504
15.96789
11.849371
8.6939693
6.4978936
5.0056871
3.9872058
3.2760432
2.7169361
2.2829479
1.989917
1.789649
1.6494121
1.5488322
1.474712
1.4188524
1.3760356
1.3427371
1.3164994
1.2955893
1.2787648
1.2651181
1.2539727
1.2448156
1.2372519
1.2309737
1.2257384
22.593815
22.357855
21.434104
19.524558
15.988442
11.867231
8.7055994
6.5042449
5.0087881
3.988369
3.2760987
2.7164532
2.2824263
1.989505
1.7893352
1.6491789
1.5486566
1.4745767
1.4187458
1.3759497
1.3426662
1.3164394
1.2955374
1.2787188
1.2650765
1.2539343
1.2447794
1.2372173
1.2309401
1.2257054
22.595366
22.360255
21.439235
19.536583
16.008999
11.885146
8.7172728
6.5106209
5.011902
3.9895378
3.2761565
2.7159717
2.2819063
1.989094
1.7890221
1.6489462
1.5484814
1.4744417
1.4186395
1.3758641
1.3425956
1.3163797
1.2954857
1.278673
1.265035
1.253896
1.2447434
1.2371828
1.2309067
1.2256725
22.596915
22.362654
21.444357
19.548578
16.02956
11.903117
8.7289897
6.5170211
5.0150283
3.9907127
3.2762167
2.7154917
2.2813877
1.9886839
1.7887098
1.6487141
1.5483068
1.4743071
1.4185335
1.3757788
1.3425253
1.3163203
1.2954343
1.2786275
1.2649939
1.253858
1.2447077
1.2371487
1.2308735
1.22564
22.598461
22.365052
21.449469
19.560544
16.050126
11.921146
8.7407505
6.5234464
5.018167
3.9918927
3.2762791
2.7150134
2.2808703
1.9882747
1.788398
1.6484824
1.5481324
1.4741728
1.4184278
1.3756937
1.3424551
1.316261
1.295383
1.2785821
1.2649528
1.2538201
1.244672
1.2371146
1.2308405
1.2256074
22.600004
22.36745
21.454571
19.572483
16.070697
11.939231
8.7525549
6.5298965
5.0213188
3.9930779
3.2763437
2.7145368
2.2803544
1.9878668
1.7880871
1.6482514
1.5479585
1.474039
1.4183224
1.375609
1.3423853
1.316202
1.295332
1.278537
1.2649121
1.2537825
1.2446367
1.2370808
1.2308077
1.2255752
22.601545
22.369847
21.459665
19.584392
16.091271
11.957372
8.7644037
6.5363717
5.0244837
3.9942683
3.2764107
2.7140618
2.2798397
1.9874599
1.7877769
1.6480209
1.5477851
1.4739054
1.4182174
1.3755245
1.3423157
1.3161433
1.2952812
1.2784921
1.2648715
1.253745
1.2446015
1.2370472
1.2307751
1.2255432
22.603083
22.372242
21.464751
19.596271
16.111849
11.97557
8.7762968
6.5428721
5.0276611
3.9954642
3.2764798
2.7135882
2.2793263
1.9870541
1.7874677
1.6477911
1.5476121
1.4737724
1.4181127
1.3754404
1.3422464
1.3160849
1.2952308
1.2784475
1.2648312
1.2537079
1.2445667
1.2370139
1.2307427
1.2255114
22.604619
22.374637
21.469826
19.608123
16.132428
11.993825
8.7882345
6.5493979
5.0308516
3.996666
3.2765513
2.7131161
2.2788142
1.9866494
1.7871593
1.6475618
1.5474395
1.4736395
1.4180083
1.3753564
1.3421773
1.3160265
1.2951804
1.278403
1.264791
1.2536708
1.2445318
1.2369806
1.2307104
1.2254797
22.606152
22.377031
21.474891
19.619946
16.153012
12.012137
8.8002169
6.5559495
5.0340556
3.9978738
3.2766249
2.7126454
2.2783036
1.9862458
1.7868517
1.6473331
1.5472674
1.4735072
1.4179042
1.3752728
1.3421085
1.3159686
1.2951303
1.2783588
1.2647511
1.2536341
1.2444973
1.2369476
1.2306784
1.2254482
22.607683
22.379424
21.479945
19.63174
16.173597
12.030505
8.8122441
6.5625267
5.0372727
3.9990876
3.2767009
2.7121761
2.2777947
1.9858432
1.7865449
1.647105
1.5470958
1.4733751
1.4178004
1.3751895
1.3420399
1.3159108
1.2950804
1.2783147
1.2647113
1.2535974
1.2444629
1.2369148
1.2306466
1.2254169
22.609212
22.381815
21.48499
19.643505
16.194186
12.048932
8.824317
6.56913
5.0405029
4.0003075
3.2767791
2.7117085
2.2772874
1.9854416
1.7862389
1.6468775
1.5469246
1.4732435
1.417697
1.3751064
1.3419717
1.3158533
1.2950308
1.278271
1.2646719
1.2535611
1.2444288
1.2368822
1.230615
1.2253859
22.610738
22.384205
21.490025
19.655242
16.214774
12.067415
8.8364351
6.5757592
5.0437467
4.0015328
3.2768596
2.7112424
2.2767815
1.985041
1.7859336
1.6466505
1.5467539
1.4731122
1.4175938
1.3750236
1.3419036
1.3157959
1.2949813
1.2782273
1.2646324
1.2535248
1.2443948
1.2368497
1.2305835
1.2253549
22.612262
22.386593
21.495051
19.666951
16.235366
12.085955
8.8485989
6.5824149
5.0470042
4.0027635
3.2769424
2.7107778
2.276277
1.9846414
1.7856292
1.6464242
1.5465836
1.4729813
1.4174909
1.3749411
1.3418358
1.3157388
1.2949322
1.2781839
1.2645933
1.2534888
1.244361
1.2368175
1.2305522
1.2253242
22.613783
22.38898
21.500067
19.678631
16.255957
12.104553
8.8608084
6.5890969
5.0502751
4.0039998
3.2770275
2.7103146
2.2757738
1.9842431
1.7853254
1.6461985
1.5464139
1.4728507
1.4173884
1.3748588
1.3417682
1.3156819
1.2948831
1.2781407
1.2645544
1.2534529
1.2443273
1.2367853
1.2305211
1.2252936
22.615303
22.391366
21.505074
19.690282
16.276551
12.123208
8.8730641
6.5958058
5.0535596
4.0052421
3.2771149
2.7098532
2.2752719
1.9838459
1.7850226
1.6459734
1.5462446
1.4727206
1.4172863
1.3747769
1.3417009
1.3156254
1.2948344
1.2780978
1.2645157
1.2534173
1.244294
1.2367535
1.2304902
1.2252633
22.61682
22.39375
21.510071
19.701905
16.297144
12.14192
8.8853664
6.6025415
5.0568583
4.0064907
3.2772046
2.7093934
2.2747713
1.9834497
1.7847205
1.6457489
1.5460757
1.4725908
1.4171843
1.3746951
1.3416338
1.3155689
1.2947858
1.2780549
1.2644771
1.2533818
1.2442607
1.2367217
1.2304594
1.225233
22.618335
22.396132
21.515061
19.7135
16.317738
12.160689
8.8977149
6.6093042
5.0601708
4.0077454
3.2772965
2.708935
2.2742721
1.9830548
1.7844194
1.645525
1.5459073
1.4724614
1.4170828
1.3746137
1.341567
1.3155128
1.2947375
1.2780123
1.2644387
1.2533466
1.2442276
1.2366902
1.2304288
1.225203
22.619847
22.398513
21.520042
19.725067
16.338331
12.179516
8.9101104
6.6160944
5.0634971
4.0090065
3.2773908
2.708478
2.2737746
1.982661
1.7841192
1.6453017
1.5457394
1.4723323
1.4169815
1.3745326
1.3415004
1.3154568
1.2946893
1.2779699
1.2644005
1.2533115
1.2441947
1.2366588
1.2303984
1.2251731
22.621358
22.400893
21.525012
19.736604
16.358924
12.198401
8.9225526
6.6229118
5.0668378
4.0102736
3.2774874
2.7080225
2.2732787
1.9822683
1.7838199
1.6450791
1.545572
1.4722037
1.4168806
1.3744518
1.3414342
1.3154012
1.2946414
1.2779278
1.2643626
1.2532766
1.2441621
1.2366276
1.2303682
1.2251434
22.622866
22.40327
21.529973
19.748114
16.379517
12.217344
8.9350421
6.6297571
5.0701929
4.0115464
3.2775862
2.7075683
2.2727843
1.9818765
1.7835214
1.6448571
1.545405
1.4720753
1.4167799
1.3743711
1.3413681
1.3153456
1.2945936
1.2778857
1.2643248
1.2532419
1.2441295
1.2365965
1.2303381
1.2251138
22.624373
22.405645
21.534924
19.759596
16.400108
12.236344
8.9475793
6.6366301
5.073562
4.0128251
3.2776875
2.7071155
2.2722912
1.9814858
1.7832238
1.6446359
1.5452386
1.4719475
1.4166797
1.3742909
1.3413023
1.3152904
1.2945462
1.277844
1.2642872
1.2532074
1.2440971
1.2365657
1.2303082
1.2250845
22.625877
22.408018
21.539865
19.77105
16.420698
12.255402
8.9601639
6.6435314
5.0769457
4.0141099
3.277791
2.7066643
2.2717995
1.9810963
1.782927
1.6444152
1.5450726
1.47182
1.4165797
1.3742108
1.3412367
1.3152354
1.2944988
1.2778023
1.2642498
1.253173
1.2440649
1.236535
1.2302785
1.2250553
22.627379
22.410388
21.544796
19.782475
16.441286
12.274518
8.9727966
6.6504607
5.0803443
4.0154011
3.2778969
2.7062145
2.2713091
1.980708
1.7826311
1.6441952
1.5449071
1.471693
1.4164802
1.3741312
1.3411714
1.3151806
1.2944518
1.277761
1.2642126
1.2531389
1.244033
1.2365045
1.230249
1.2250263
22.628878
22.412756
21.549718
19.793872
16.461872
12.293691
8.9854771
6.6574188
5.0837574
4.0166989
3.278005
2.7057661
2.27082
1.9803207
1.782336
1.6439759
1.5447422
1.4715663
1.4163809
1.3740517
1.3411063
1.315126
1.2944049
1.2777197
1.2641755
1.2531048
1.2440011
1.2364741
1.2302195
1.2249974
22.630376
22.415122
21.55463
19.805241
16.482455
12.312923
8.9982058
6.6644054
5.0871852
4.0180033
3.2781156
2.7053192
2.2703322
1.9799348
1.7820418
1.6437572
1.5445778
1.4714401
1.416282
1.3739726
1.3410416
1.3150717
1.2943583
1.2776788
1.2641387
1.253071
1.2439695
1.236444
1.2301903
1.2249687
22.631871
22.417485
21.559533
19.816583
16.503036
12.332212
9.0109836
6.6714211
5.0906282
4.0193141
3.2782284
2.7048738
2.2698459
1.97955
1.7817485
1.6435392
1.5444138
1.4713142
1.4161834
1.3738938
1.340977
1.3150176
1.2943118
1.2776379
1.264102
1.2530374
1.243938
1.236414
1.2301613
1.2249401
22.633364
22.419846
21.564426
19.827895
16.523613
12.351559
9.0238099
6.6784659
5.0940863
4.020631
3.2783437
2.70443
2.2693614
1.9791664
1.7814562
1.643322
1.5442505
1.4711889
1.4160852
1.3738153
1.3409128
1.3149637
1.2942656
1.2775974
1.2640656
1.253004
1.2439067
1.2363842
1.2301324
1.2249118
22.634855
22.422204
21.569312
19.83918
16.544188
12.370965
9.0366852
6.6855401
5.0975593
4.0219541
3.2784613
2.7039875
2.2688783
1.9787838
1.7811648
1.6431053
1.5440876
1.4710638
1.4159873
1.373737
1.3408487
1.31491
1.2942195
1.2775569
1.2640292
1.2529707
1.2438755
1.2363544
1.2301036
1.2248835
22.636344
22.42456
21.574189
19.850437
16.564758
12.390429
9.0496097
6.692644
5.1010479
4.0232836
3.2785813
2.7035464
2.2683966
1.9784024
1.7808744
1.6428894
1.5439254
1.4709393
1.4158898
1.373659
1.340785
1.3148566
1.2941737
1.2775167
1.2639932
1.2529376
1.2438446
1.2363249
1.2300751
1.2248555
22.637831
22.426913
21.579056
19.861666
16.585325
12.40995
9.0625834
6.6997776
5.1045522
4.0246199
3.2787037
2.7031067
2.2679163
1.9780221
1.7805849
1.6426741
1.5437636
1.4708152
1.4157926
1.3735814
1.3407215
1.3148034
1.2941281
1.2774766
1.2639572
1.2529046
1.2438137
1.2362956
1.2300467
1.2248276
22.639315
22.429263
21.583913
19.872867
16.605886
12.429531
9.0756071
6.7069415
5.1080717
4.0259632
3.2788285
2.7026683
2.2674374
1.977643
1.7802964
1.6424597
1.5436024
1.4706916
1.4156958
1.3735041
1.3406583
1.3147506
1.2940828
1.2774369
1.2639216
1.252872
1.2437832
1.2362665
1.2300185
1.2247999
22.640797
22.431611
21.588761
19.884039
16.626444
12.449169
9.0886803
6.7141356
5.1116071
4.0273133
3.2789558
2.7022313
2.2669598
1.9772651
1.7800088
1.6422459
1.5434418
1.4705683
1.4155994
1.373427
1.3405953
1.3146978
1.2940376
1.2773972
1.263886
1.2528394
1.2437527
1.2362375
1.2299904
1.2247723
22.642278
22.433956
21.593598
19.895184
16.646995
12.468865
9.1018037
6.7213605
5.1151587
4.0286704
3.2790856
2.7017959
2.2664835
1.9768885
1.7797222
1.6420329
1.5432817
1.4704455
1.4155033
1.3733504
1.3405327
1.3146454
1.2939927
1.2773579
1.2638507
1.2528071
1.2437225
1.2362087
1.2299625
1.224745
22.643756
22.436298
21.598425
19.906302
16.667543
12.488621
9.1149778
6.728616
5.1187261
4.0300339
3.2792178
2.7013619
2.2660088
1.9765132
1.7794365
1.6418207
1.5431222
1.4703232
1.4154077
1.373274
1.3404703
1.3145932
1.293948
1.2773187
1.2638156
1.2527749
1.2436924
1.2361801
1.2299348
1.2247177
22.645231
22.438637
21.603243
19.917391
16.688083
12.508433
9.1282019
6.7359027
5.1223096
4.0314041
3.2793526
2.7009293
2.2655357
1.9761392
1.7791518
1.6416093
1.5429633
1.4702015
1.4153125
1.3731981
1.3404083
1.3145414
1.2939036
1.2772798
1.2637808
1.252743
1.2436626
1.2361517
1.2299074
1.2246908
22.646705
22.440974
21.608051
19.928452
16.708619
12.528305
9.1414769
6.7432207
5.1259097
4.0327812
3.2794899
2.7004982
2.2650642
1.9757664
1.7788681
1.6413986
1.542805
1.47008
1.4152175
1.3731223
1.3403464
1.3144896
1.2938593
1.277241
1.263746
1.2527112
1.2436329
1.2361234
1.22988
1.2246639
22.648176
22.443307
21.61285
19.939485
16.729147
12.548236
9.1548029
6.7505705
5.1295262
4.0341655
3.2796297
2.7000687
2.2645943
1.9753949
1.7785855
1.6411887
1.5426473
1.4699592
1.4151231
1.373047
1.340285
1.3144383
1.2938154
1.2772025
1.2637116
1.2526796
1.2436034
1.2360954
1.2298528
1.2246372
22.649646
22.445637
21.617639
19.950491
16.749668
12.568224
9.1681796
6.7579521
5.1331592
4.0355572
3.2797722
2.6996408
2.2641259
1.9750246
1.778304
1.6409796
1.5424903
1.4698388
1.415029
1.372972
1.3402238
1.3143872
1.2937716
1.2771642
1.2636773
1.2526483
1.2435741
1.2360675
1.2298259
1.2246107
22.651113
22.447964
21.62242
19.961469
16.770182
12.588271
9.1816079
6.765366
5.1368092
4.0369563
3.2799174
2.6992145
2.263659
1.9746556
1.7780236
1.6407714
1.5423339
1.4697191
1.4149355
1.3728974
1.340163
1.3143364
1.2937283
1.2771263
1.2636433
1.2526172
1.2435451
1.2360399
1.2297992
1.2245845
22.652577
22.450287
21.627191
19.972418
16.790689
12.608378
9.1950877
6.7728121
5.1404762
4.0383627
3.2800651
2.6987896
2.2631936
1.9742879
1.7777442
1.640564
1.5421781
1.4695997
1.4148422
1.3728231
1.3401024
1.3142858
1.293685
1.2770884
1.2636094
1.2525862
1.2435162
1.2360124
1.2297725
1.2245584
22.65404
22.452608
21.631955
19.983339
16.811188
12.628541
9.2086192
6.7802912
5.14416
4.039776
3.2802157
2.6983663
2.2627297
1.9739215
1.777466
1.6403574
1.5420231
1.469481
1.4147495
1.3727493
1.3400422
1.3142356
1.2936421
1.2770509
1.2635759
1.2525555
1.2434876
1.2359851
1.2297462
1.2245325
22.6555
22.454925
21.636708
19.994233
16.831678
12.648765
9.2222028
6.7878031
5.1478614
4.0411966
3.2803689
2.6979445
2.2622673
1.9735566
1.7771889
1.6401517
1.5418687
1.4693627
1.4146572
1.3726757
1.3399823
1.3141856
1.2935994
1.2770136
1.2635425
1.252525
1.2434591
1.2359581
1.22972
1.2245068
22.656958
22.457238
21.641451
20.0051
16.85216
12.669047
9.235838
6.7953485
5.1515802
4.0426247
3.280525
2.6975243
2.2618065
1.9731931
1.7769129
1.6399469
1.541715
1.4692451
1.4145654
1.3726027
1.3399228
1.314136
1.2935571
1.2769766
1.2635095
1.2524948
1.243431
1.2359313
1.2296941
1.2244814
22.658413
22.459548
21.646184
20.015938
16.872633
12.689387
9.2495259
6.8029273
5.1553164
4.0440606
3.2806839
2.6971058
2.2613475
1.9728311
1.7766379
1.6397429
1.541562
1.4691279
1.414474
1.3725299
1.3398635
1.3140866
1.2935149
1.2769398
1.2634765
1.2524647
1.2434029
1.2359046
1.2296683
1.224456
22.659866
22.461855
21.650907
20.026748
16.893096
12.709786
9.2632663
6.8105402
5.1590705
4.0455043
3.2808456
2.6966889
2.2608904
1.9724705
1.7763642
1.6395398
1.5414097
1.4690114
1.4143831
1.3724576
1.3398047
1.3140376
1.2934731
1.2769033
1.2634439
1.2524349
1.2433752
1.2358783
1.2296428
1.224431
22.661316
22.464158
21.65562
20.03753
16.91355
12.730244
9.2770587
6.8181871
5.1628426
4.046956
3.2810103
2.6962738
2.260435
1.9721113
1.7760916
1.6393378
1.5412581
1.4688955
1.4142927
1.3723857
1.3397462
1.3139889
1.2934315
1.276867
1.2634115
1.2524054
1.2433476
1.2358521
1.2296174
1.2244061
22.662764
22.466458
21.660323
20.048285
16.933994
12.75076
9.2909046
6.8258686
5.1666326
4.0484153
3.281178
2.6958604
2.2599814
1.9717537
1.7758203
1.6391367
1.5411074
1.4687803
1.4142029
1.3723143
1.3396882
1.3139406
1.2933904
1.2768311
1.2633795
1.2523762
1.2433204
1.2358262
1.2295925
1.2243816
22.664209
22.468753
21.665016
20.059012
16.954427
12.771336
9.3048033
6.8335849
5.1704409
4.0498822
3.2813488
2.6954489
2.2595295
1.9713975
1.7755502
1.6389365
1.5409573
1.4686655
1.4141134
1.3722432
1.3396304
1.3138925
1.2933494
1.2767954
1.2633476
1.252347
1.2432933
1.2358005
1.2295675
1.2243571
22.665652
22.471045
21.6697
20.06971
16.97485
12.791971
9.3187546
6.8413363
5.1742678
4.0513571
3.2815226
2.6950393
2.2590793
1.9710428
1.7752814
1.6387373
1.540808
1.4685515
1.4140246
1.3721726
1.3395731
1.3138448
1.2933088
1.27676
1.2633161
1.2523183
1.2432665
1.2357751
1.229543
1.224333
22.667091
22.473333
21.674375
20.080382
16.995261
12.812663
9.3327599
6.8491233
5.178113
4.0528402
3.2816996
2.6946317
2.2586309
1.9706896
1.775014
1.6385391
1.5406595
1.468438
1.4139363
1.3721025
1.3395161
1.3137975
1.2932685
1.2767249
1.2632848
1.2522898
1.24324
1.2357498
1.2295186
1.2243091
22.668529
22.475616
21.67904
20.091025
17.015661
12.833415
9.3468185
6.856946
5.1819771
4.0543317
3.2818798
2.694226
2.2581844
1.9703382
1.7747479
1.638342
1.5405119
1.4683253
1.4138486
1.3720329
1.3394597
1.3137506
1.2932286
1.2766902
1.2632539
1.2522616
1.2432138
1.235725
1.2294946
1.2242855
22.669963
22.477896
21.683697
20.101641
17.036049
12.854226
9.3609301
6.8648048
5.1858603
4.0558315
3.2820634
2.6938221
2.2577397
1.9699883
1.774483
1.6381459
1.5403649
1.4682131
1.4137613
1.3719637
1.3394035
1.3137039
1.293189
1.2766557
1.2632231
1.2522336
1.2431877
1.2357003
1.2294707
1.2242621
22.671394
22.480171
21.688344
20.112229
17.056424
12.875095
9.3750961
6.8727001
5.1897622
4.0573397
3.2822503
2.6934203
2.2572971
1.9696402
1.7742195
1.6379508
1.5402189
1.4681017
1.4136747
1.371895
1.3393478
1.3136578
1.2931497
1.2766216
1.2631928
1.252206
1.2431621
1.2356759
1.2294472
1.224239
22.672823
22.482442
21.692983
20.122789
17.076787
12.896024
9.389316
6.8806321
5.1936836
4.058856
3.2824406
2.6930205
2.2568566
1.9692938
1.7739574
1.6377569
1.5400738
1.467991
1.4135887
1.3718269
1.3392926
1.3136119
1.2931108
1.2765878
1.2631627
1.2521787
1.2431366
1.2356518
1.2294239
1.2242162
22.674249
22.484709
21.69761
20.133321
17.097137
12.917011
9.4035895
6.8886014
5.1976245
4.0603808
3.2826344
2.6926229
2.2564183
1.9689492
1.7736967
1.637564
1.5399296
1.467881
1.4135033
1.3717593
1.3392379
1.3135666
1.2930724
1.2765544
1.2631331
1.2521517
1.2431116
1.2356281
1.229401
1.2241937
22.675671
22.486972
21.702228
20.143825
17.117473
12.938057
9.4179176
6.896608
5.2015847
4.0619143
3.2828317
2.6922275
2.255982
1.9686062
1.7734374
1.6373722
1.5397861
1.4677716
1.4134184
1.3716921
1.3391835
1.3135216
1.2930342
1.2765213
1.2631036
1.2521249
1.2430867
1.2356045
1.2293782
1.2241714
22.677091
22.48923
21.706835
20.154303
17.137796
12.959162
9.4322999
6.9046527
5.2055648
4.0634566
3.2830326
2.6918343
2.2555478
1.9682651
1.7731795
1.6371816
1.5396437
1.4676631
1.4133342
1.3716255
1.3391297
1.313477
1.2929965
1.2764886
1.2630746
1.2520986
1.2430623
1.2355813
1.2293559
1.2241494
22.678508
22.491484
21.711432
20.164752
17.158105
12.980326
9.4467363
6.9127355
5.2095649
4.0650079
3.2832371
2.6914434
2.2551157
1.9679257
1.772923
1.6369922
1.5395021
1.4675553
1.4132506
1.3715594
1.3390763
1.3134329
1.2929591
1.2764562
1.2630459
1.2520725
1.2430381
1.2355584
1.2293338
1.2241277
22.679922
22.493733
21.716019
20.175174
17.178399
13.001548
9.4612277
6.9208571
5.2135848
4.066568
3.2834454
2.6910548
2.2546858
1.9675882
1.7726682
1.6368039
1.5393616
1.4674483
1.4131677
1.371494
1.3390235
1.3133893
1.2929222
1.2764242
1.2630176
1.2520469
1.2430143
1.2355359
1.229312
1.2241064
22.681333
22.495978
21.720596
20.185567
17.198678
13.022831
9.4757736
6.9290176
5.2176251
4.0681368
3.2836575
2.6906686
2.2542581
1.9672524
1.7724148
1.6366168
1.5392218
1.467342
1.4130853
1.371429
1.338971
1.3133459
1.2928856
1.2763926
1.2629895
1.2520214
1.2429907
1.2355136
1.2292905
1.2240853
22.68274
22.498219
21.725164
20.195934
17.218942
13.044171
9.4903739