/*--------------------------------*- C++ -*----------------------------------*\
| =========                 |                                                 |
| \\      /  F ield         | OpenFOAM: The Open Source CFD Toolbox           |
|  \\    /   O peration     | Version:  v2012                                 |
|   \\  /    A nd           | Website:  www.openfoam.com                      |
|    \\/     M anipulation  |                                                 |
\*---------------------------------------------------------------------------*/
FoamFile
{
    version     2.0;
    format      ascii;
    class       volScalarField;
    location    "500";
    object      T;
}
// * * * * * * * * * * * * * * * * * * * * * * * * * * * * * * * * * * * * * //

dimensions      [0 0 0 1 0 0 0];


internalField   nonuniform List<scalar> 
24000
(
42.572728
42.729266
43.413915
45.338645
50.704807
61.250404
77.233614
98.292684
123.66439
151.9899
182.72484
219.25073
260.79604
299.59436
333.84473
363.14626
387.5755
407.76998
424.40925
438.08372
449.31482
458.55443
466.17484
472.47616
477.69936
482.03852
485.65075
488.66382
491.18209
493.29106
42.571929
42.728021
43.41048
45.32555
50.662501
61.174468
77.135423
98.17352
123.53734
151.87509
182.62909
219.16062
260.70688
299.51678
333.77967
363.09042
387.52337
407.71929
424.35841
438.03166
449.26096
458.49859
466.11707
472.41668
477.63847
481.97656
485.58804
488.60067
491.11877
493.22782
42.571113
42.726736
43.406675
45.311528
50.62217
61.107239
77.055672
98.074779
123.44055
151.80043
182.58304
219.12988
260.67994
299.49426
333.75869
363.06497
387.49758
407.69318
424.33144
438.0035
449.23144
458.46766
466.08479
472.38316
477.60388
481.94112
485.55198
488.56423
491.08217
493.19124
42.570295
42.725403
43.402754
45.297584
50.583038
61.042817
76.976588
97.982824
123.35468
151.73812
182.55199
219.1227
260.68257
299.50376
333.77305
363.08085
387.51438
407.71043
424.34835
438.01932
449.24578
458.48042
466.09608
472.39321
477.61295
481.94945
485.5598
488.57171
491.08945
493.19846
42.569477
42.724048
43.398786
45.283722
50.544572
60.97999
76.897675
97.895985
123.27732
151.68634
182.5341
219.13435
260.70771
299.53444
333.80504
363.10939
387.53845
407.73014
424.36404
438.03149
449.25502
458.48728
466.10101
472.39662
477.61518
481.95079
485.56051
488.57201
491.08953
493.19846
42.568659
42.72268
43.394809
45.269963
50.506511
60.918082
76.818866
97.812228
123.20488
151.64067
182.52412
219.15798
260.74806
299.58084
333.85253
363.15312
387.57753
407.76487
424.39482
438.05876
449.2793
458.50908
466.12082
472.41485
477.63219
481.9669
485.57597
488.58703
491.1043
493.21314
42.567843
42.721305
43.390839
45.256285
50.468746
60.856709
76.740229
97.730405
123.13551
151.59885
182.51921
219.18931
260.79804
299.6369
333.90895
363.20471
387.62332
407.80527
424.43044
438.09029
449.30746
458.53454
466.14415
472.43652
477.65259
481.98635
485.59474
488.60536
491.12236
493.23108
42.567027
42.719928
43.386881
45.242689
50.431194
60.795457
76.662083
97.649786
123.06806
151.55949
182.51759
219.22566
260.85442
299.69949
333.97158
363.26203
387.67434
407.85049
424.47056
438.12606
449.33969
458.56396
466.17135
472.462
477.67677
482.00956
485.61725
488.6274
491.14413
493.25273
42.566213
42.71855
43.382938
45.229191
50.393831
60.734338
76.584246
97.569925
123.0018
151.5217
182.51811
219.26531
260.91499
299.76633
334.03823
363.32299
387.7286
407.89858
424.51328
438.16424
449.3742
458.59555
466.20067
472.48956
477.70299
482.0348
485.64179
488.65146
491.1679
493.27637
42.565401
42.717172
43.379011
45.215751
50.356617
60.673321
76.506582
97.490527
122.9363
151.48493
182.52003
219.30717
260.97836
299.83602
334.10757
363.38642
387.78507
407.94868
424.55783
438.20412
449.41031
458.6287
466.2315
472.51862
477.7307
482.0615
485.66777
488.67696
491.19311
493.30145
42.564591
42.715794
43.375098
45.202364
50.319543
60.612421
76.429014
97.411403
122.87128
151.44881
182.52288
219.35051
261.04363
299.90765
334.17873
363.45149
387.84302
408.0001
424.60357
438.2451
449.44746
458.66283
466.26329
472.5486
477.75932
482.08911
485.69465
488.70336
491.21921
493.32741
42.563783
42.714418
43.371204
45.189055
50.282589
60.551636
76.351471
97.332432
122.80655
151.4131
182.52633
219.39486
261.11021
299.98061
334.25115
363.51771
387.90199
408.05242
424.65013
438.28683
449.48532
458.69764
466.29574
472.57923
477.78857
482.11733
485.72215
488.73036
491.24592
493.35398
42.562977
42.713043
43.367334
45.175805
50.245749
60.49095
76.273921
97.253521
122.74198
151.37764
182.53019
219.43991
261.1777
300.05448
334.32442
363.58469
387.96164
408.10535
424.69723
438.32906
449.52364
458.73289
466.3286
472.61026
477.81821
482.14595
485.75004
488.75775
491.27301
493.38093
42.562173
42.711669
43.363476
45.162596
50.209013
60.430391
76.196321
97.174618
122.67746
151.34231
182.53432
219.48545
261.24582
300.129
334.39828
363.65221
388.02176
408.1587
424.74471
438.37164
449.56228
458.76844
466.36176
472.64158
477.84814
482.17486
485.7782
488.78542
491.30037
493.40816
42.561371
42.710296
43.359631
45.149436
50.172377
60.369932
76.11865
97.095678
122.61295
151.30704
182.53862
219.53132
261.31438
300.20395
334.47255
363.72009
388.0822
408.21232
424.79243
438.41442
449.60111
458.80418
466.39509
472.67307
477.87823
482.20391
485.80652
488.81323
491.32789
493.43553
42.560571
42.708924
43.355797
45.136348
50.135837
60.309597
76.040889
97.016668
122.54841
151.27177
182.54301
219.57741
261.38323
300.27922
334.54709
363.78822
388.14285
408.26612
424.84031
438.45736
449.64008
458.84003
466.42853
472.70466
477.90843
482.23307
485.83494
488.84115
491.3555
493.463
42.559772
42.707553
43.351975
45.123312
50.099403
60.249313
75.96302
96.937572
122.48379
151.23646
182.54744
219.62364
261.45228
300.35468
334.62181
363.8565
388.20364
408.32004
424.88828
438.50036
449.6791
458.87594
466.46202
472.7363
477.93866
482.26226
485.86339
488.8691
491.38315
493.49051
42.558975
42.706183
43.348165
45.110326
50.063078
60.189062
75.885035
96.858369
122.41906
151.20108
182.55186
219.66995
261.52146
300.43027
334.69663
363.92487
388.2645
408.37401
424.93631
438.54341
449.71817
458.91189
466.49555
472.76797
477.96893
482.29149
485.89188
488.89709
491.41083
493.51805
42.55818
42.704814
43.344366
45.09741
50.026852
60.128878
75.806922
96.779053
122.35423
151.16561
182.55625
219.71629
261.5907
300.50591
334.77149
363.99327
388.32537
408.428
424.98433
438.58645
449.75722
458.94781
466.52906
472.79962
477.99917
482.32069
485.92033
488.92504
491.43848
493.54555
42.557386
42.703447
43.340577
45.084562
49.990738
60.068733
75.728679
96.699612
122.28927
151.13004
182.56057
219.76263
261.65997
300.58158
334.84636
364.06167
388.38625
408.48197
425.03233
438.62947
449.79625
458.98371
466.56253
472.83123
478.02938
482.34987
485.94876
488.95297
491.4661
493.57303
42.556594
42.702082
43.336799
45.071762
49.954719
60.008642
75.650293
96.62004
122.22417
151.09435
182.56482
219.80895
261.72923
300.65724
334.92121
364.13004
388.44708
408.5359
425.08028
438.67243
449.83522
459.01955
466.59595
472.86279
478.05953
482.37897
485.97712
488.98083
491.49365
493.60045
42.555803
42.700717
43.333034
45.059012
49.91881
59.948615
75.571768
96.540336
122.15892
151.05852
182.56898
219.85522
261.79849
300.73288
334.99602
364.19836
388.50787
408.58978
425.12819
438.71535
449.87415
459.05536
466.62933
472.89431
478.08964
482.40805
486.00545
489.00865
491.52118
493.62783
42.555014
42.699354
43.329291
45.046337
49.882993
59.888629
75.49309
96.460491
122.09352
151.02255
182.57304
219.90144
261.86769
300.80846
335.07076
364.26662
388.56859
408.64359
425.17602
438.75819
449.913
459.09107
466.66262
472.92574
478.11967
482.43703
486.03369
489.03639
491.54861
493.65512
42.554226
42.697991
43.325559
45.033717
49.847284
59.828722
75.414264
96.380509
122.02797
150.98643
182.577
219.94759
261.93684
300.884
335.14544
364.3348
388.62925
408.69734
425.22378
438.80097
449.95178
459.12673
466.69585
472.95711
478.14964
482.46596
486.06187
489.06407
491.57599
493.68235
42.553439
42.696629
43.321836
45.021142
49.811668
59.768866
75.335279
96.300382
121.96224
150.95015
182.58083
219.99368
262.00593
300.95946
335.22003
364.4029
388.68981
408.751
425.27146
438.84365
449.99048
459.16229
466.72899
472.98839
478.17951
482.49478
486.08996
489.09166
491.60326
493.70949
42.552654
42.695268
43.318124
45.008622
49.776157
59.709073
75.256136
96.220115
121.89634
150.91371
182.58455
220.03967
262.07494
301.03484
335.29453
364.47091
388.7503
408.80457
425.31906
438.88627
450.0291
459.19779
466.76207
473.01961
478.20932
482.52356
486.11799
489.11919
491.63049
493.73658
42.551871
42.693908
43.314422
44.996177
49.74074
59.649344
75.176854
96.139709
121.83028
150.87712
182.58814
220.08558
262.14387
301.11012
335.36891
364.53881
388.81067
408.85804
425.36655
438.92878
450.06763
459.23319
466.79504
473.05072
478.23903
482.55223
486.14592
489.14661
491.65761
493.76356
42.551089
42.692549
43.31073
44.983779
49.705426
59.589612
75.0975
96.05916
121.76406
150.84037
182.59159
220.13139
262.21271
301.1853
335.44318
364.60659
388.87094
408.91142
425.41396
438.9712
450.10606
459.2685
466.82793
473.08176
478.26866
482.58082
486.17377
489.17396
491.68466
493.79047
42.550308
42.691194
43.307047
44.971424
49.670207
59.529909
75.018076
95.978472
121.69765
150.80346
182.59492
220.1771
262.28147
301.26036
335.51733
364.67425
388.93109
408.96468
425.46125
439.01351
450.14439
459.3037
466.86071
473.11268
478.29818
482.60931
486.20151
489.2012
491.7116
493.81727
42.549528
42.68984
43.303375
44.959132
49.63509
59.470214
74.938579
95.897639
121.63106
150.76639
182.59811
220.22271
262.35013
301.33533
335.59136
364.7418
388.99115
409.01784
425.50845
439.05575
450.18264
459.33884
466.89343
473.14355
478.32765
482.63774
486.2292
489.22839
491.73849
493.84401
42.548751
42.688487
43.299712
44.946907
49.600075
59.410524
74.859015
95.816664
121.56431
150.72915
182.60116
220.26822
262.4187
301.41018
335.66526
364.80923
389.05108
409.07089
425.55554
439.09787
450.22078
459.37386
466.92604
473.17431
478.357
482.66605
486.25677
489.25547
491.76526
493.87065
42.547976
42.687136
43.296059
44.934725
49.565152
59.350867
74.779378
95.735543
121.49738
150.69175
182.60407
220.31363
262.48717
301.48493
335.73904
364.87654
389.1109
409.12384
425.60254
439.1399
450.25884
459.4088
466.95857
473.20498
478.38628
482.69429
486.28428
489.28247
491.79196
493.89721
42.547202
42.685785
43.292424
44.922589
49.530342
59.291207
74.699674
95.654275
121.43026
150.65416
182.60685
220.35893
262.55555
301.55956
335.81269
364.94372
389.17061
409.17667
425.64942
439.18181
450.29678
459.44363
466.99099
473.23555
478.41545
482.72243
486.31167
489.30937
491.81856
493.92367
42.546429
42.684436
43.288804
44.910518
49.495617
59.231572
74.619898
95.572862
121.36296
150.61642
182.60949
220.40413
262.62384
301.63408
335.88622
365.01078
389.2302
409.22941
425.69621
439.22366
450.33466
459.4784
467.02335
473.26606
478.44457
482.75051
486.33902
489.33621
491.8451
493.95008
42.545658
42.683088
43.285193
44.898506
49.461008
59.171954
74.540051
95.491299
121.2955
150.57851
182.61199
220.44922
262.69203
301.70847
335.95959
365.0777
389.28966
409.28202
425.74288
439.26537
450.37241
459.51305
467.05559
473.29646
478.47356
482.77848
486.36624
489.36294
491.87153
493.97637
42.544888
42.681741
43.281592
44.886537
49.426484
59.112335
74.460135
95.40959
121.22783
150.54043
182.61434
220.4942
262.76012
301.78272
336.03281
365.14447
389.349
409.33451
425.78945
439.307
450.41008
459.54762
467.08775
473.32678
478.50249
482.80637
486.3934
489.38961
491.8979
494.00259
42.544118
42.680395
43.278
44.874616
49.392076
59.052757
74.380147
95.32773
121.15998
150.50219
182.61655
220.53906
262.82809
301.85682
336.10587
365.21109
389.40819
409.38687
425.83589
439.34849
450.44763
459.58206
467.11979
473.35698
478.5313
482.83415
486.42044
489.41615
491.92414
494.0287
42.54335
42.679051
43.274418
44.862759
49.357755
58.993182
74.300091
95.245722
121.09196
150.46379
182.61863
220.58383
262.89596
301.93078
336.17878
365.27757
389.46726
409.43913
425.88224
439.38992
450.48511
459.61645
467.15179
473.38713
478.56006
482.86188
486.44744
489.44266
491.95035
494.05477
42.542584
42.677708
43.270846
44.850958
49.323548
58.933622
74.219964
95.163562
121.02375
150.42521
182.62057
220.62848
262.96372
302.00459
336.25152
365.3439
389.52619
409.49125
425.92846
439.43121
450.52246
459.65071
467.18365
473.41717
478.58871
482.8895
486.47433
489.46905
491.97644
494.08072
42.541818
42.676367
43.267282
44.839198
49.28943
58.874093
74.139771
95.081251
120.95533
150.38647
182.62237
220.67302
263.03136
302.07826
336.32411
365.41009
389.585
409.54326
425.97458
439.47242
450.55973
459.6849
467.21545
473.44713
478.61728
482.91705
486.50114
489.49537
492.00247
494.10661
42.541053
42.675027
43.263728
44.827489
49.255426
58.814565
74.059506
94.998788
120.88673
150.34754
182.62405
220.71746
263.09887
302.15177
336.39654
365.47612
389.64366
409.59514
426.02057
439.5135
450.59688
459.71897
467.24713
473.47698
478.64574
482.94449
486.52785
489.52158
492.02838
494.13239
42.54029
42.673688
43.260184
44.815842
49.221515
58.75507
73.979172
94.916172
120.81795
150.30845
182.62561
220.76178
263.16627
302.22514
336.46882
365.54202
389.7022
409.64692
426.06648
439.55451
450.63397
459.75298
467.27876
473.50678
478.67417
482.97189
486.55452
489.54776
492.05426
494.15814
42.539527
42.672351
43.256649
44.804247
49.187711
58.695592
73.898768
94.833404
120.74897
150.2692
182.62704
220.806
263.23352
302.29834
336.54092
365.60775
389.7606
409.69855
426.11225
439.59538
450.67093
459.78687
467.31027
473.53647
478.70247
482.99917
486.58107
489.57382
492.08003
494.18377
42.538766
42.671016
43.253133
44.792693
49.15401
58.636119
73.818294
94.750482
120.67978
150.22978
182.62836
220.85012
263.30063
302.37137
336.61286
365.67333
389.81886
409.75007
426.15791
439.63617
450.7078
459.82068
467.34171
473.56608
478.7307
483.02639
486.60756
489.59982
492.10573
494.20933
42.538005
42.669683
43.24963
44.781192
49.120406
58.576694
73.737755
94.667407
120.61041
150.19019
182.62956
220.89413
263.3676
302.44423
336.68461
365.73874
389.87697
409.80144
426.20344
439.67682
450.74455
459.85437
467.37302
473.59557
478.75882
483.05349
486.63393
489.6257
492.13132
494.23479
42.537246
42.668352
43.246136
44.769749
49.086914
58.517273
73.657144
94.584175
120.54084
150.15042
182.63065
220.93804
263.43443
302.51694
336.7562
365.80401
389.93496
409.85272
426.24889
439.7174
450.78124
459.88801
467.4043
473.62503
478.7869
483.08055
486.66027
489.65155
492.15688
494.26021
42.536488
42.667024
43.242651
44.758358
49.053511
58.457873
73.576467
94.500789
120.47106
150.11048
182.63163
220.98185
263.5011
302.58948
336.82762
365.86911
389.99279
409.90384
426.29419
439.75785
450.8178
459.92152
467.43544
473.65436
478.81487
483.1075
486.68649
489.67729
492.18232
494.28552
42.535731
42.665698
43.239175
44.747007
49.02023
58.398507
73.495719
94.417245
120.40108
150.07036
182.63249
221.02557
263.56763
302.66185
336.89887
365.93406
390.05049
409.95486
426.33939
439.79821
450.85428
459.95495
467.46652
473.68363
478.84277
483.13439
486.71266
489.70296
492.2077
494.31077
42.534974
42.664373
43.235709
44.735708
48.98703
58.339149
73.414903
94.333544
120.33091
150.03006
182.63324
221.06919
263.63402
302.73406
336.96994
365.99885
390.10803
410.00572
426.38446
439.83843
450.89063
459.98827
467.49748
473.71278
478.87055
483.16116
486.73871
489.72853
492.23297
494.33591
42.534219
42.663051
43.232251
44.724466
48.953959
58.279825
73.33402
94.249686
120.26053
149.98958
182.63387
221.11271
263.70027
302.80611
337.04086
366.06349
390.16546
410.05649
426.42945
439.87859
450.92692
460.02153
467.52839
473.7419
478.8983
483.1879
486.76473
489.75407
492.25822
494.36102
42.533465
42.66173
43.228803
44.713275
48.920966
58.220525
73.253068
94.165669
120.18994
149.94892
182.63439
221.15613
263.76638
302.878
337.11159
366.12795
390.22272
410.1071
426.47428
439.91861
450.96308
460.05467
467.55918
473.77089
478.92593
483.21453
486.79064
489.77949
492.28335
494.38602
42.532712
42.660411
43.225364
44.702124
48.888102
58.161235
73.172051
94.081495
120.11915
149.90809
182.63479
221.19946
263.83235
302.94971
337.18214
366.19225
390.27983
410.15759
426.51901
439.95853
450.99916
460.08773
467.5899
473.79981
478.9535
483.24109
486.81648
489.80485
492.30842
494.41095
42.53196
42.659095
43.221934
44.691024
48.855318
58.101992
73.090963
93.99716
120.04815
149.86707
182.63507
221.24269
263.89818
303.02125
337.25251
366.25638
390.33679
410.20792
426.56359
439.99831
451.0351
460.12065
467.62049
473.82861
478.98094
483.26753
486.84221
489.8301
492.33338
494.43578
42.531209
42.65778
43.218513
44.679979
48.822662
58.042765
73.009809
93.912667
119.97694
149.82587
182.63524
221.28583
263.96389
303.09264
337.32272
366.32035
390.39362
410.25815
426.60809
440.03803
451.07098
460.15353
467.65104
473.85737
479.00836
483.29394
486.86791
489.85531
492.3583
494.46057
42.530459
42.656467
43.21511
44.668985
48.790088
57.983554
72.928588
93.828011
119.90551
149.78449
182.63529
221.32888
264.02945
303.16386
337.39274
366.38416
390.45028
410.30823
426.65243
440.0776
451.10673
460.18628
467.68147
473.88601
479.03564
483.32023
486.89349
489.88041
492.38311
494.48525
42.52971
42.65516
43.21172
44.658032
48.757638
57.92439
72.847298
93.743194
119.83388
149.74291
182.63522
221.37183
264.09487
303.23491
337.46259
366.4478
390.5068
410.35817
426.69667
440.11707
451.14238
460.21895
467.71181
473.91458
479.06287
483.34646
486.919
489.90545
492.40786
494.50987
42.528962
42.653854
43.208339
44.647128
48.725278
57.865239
72.765946
93.658215
119.76204
149.70114
182.63504
221.4147
264.16015
303.3058
337.53225
366.51126
390.56315
410.40797
426.74076
440.1564
451.17791
460.25149
467.74204
473.94303
479.08997
483.37258
486.94441
489.93038
492.4325
494.53438
42.528216
42.652551
43.204967
44.636274
48.693034
57.806116
72.684522
93.573072
119.68996
149.65918
182.63473
221.45747
264.22529
303.37652
337.60174
366.57456
390.61937
410.45765
426.78476
440.19566
451.21337
460.28397
467.77222
473.97144
479.11704
483.39865
486.96978
489.95527
492.45711
494.55886
42.527472
42.65125
43.201605
44.625476
48.660887
57.747032
72.603035
93.487766
119.61768
149.61704
182.63431
221.50015
264.29029
303.44706
337.67103
366.63767
390.67542
410.50716
426.8286
440.23477
451.2487
460.31633
467.80227
473.99972
479.14399
483.42461
486.99503
489.98005
492.4816
494.58322
42.526728
42.649952
43.198251
44.614716
48.62885
57.687963
72.521482
93.402295
119.54518
149.5747
182.63376
221.54273
264.35515
303.51743
337.74014
366.70061
390.73131
410.55655
426.87233
440.27377
451.28392
460.34859
467.83224
474.02793
479.17086
483.4505
487.02022
490.00476
492.50603
494.60752
42.525985
42.648656
43.194906
44.604004
48.596917
57.628931
72.439861
93.316659
119.47245
149.53217
182.63309
221.58523
264.41987
303.58762
337.80905
366.76337
390.78703
410.60577
426.9159
440.31264
451.31902
460.38073
467.86209
474.05602
479.19762
483.47628
487.04529
490.02936
492.53035
494.6317
42.525244
42.647362
43.19157
44.59334
48.565087
57.569933
72.358179
93.230855
119.3995
149.48943
182.63229
221.62763
264.48446
303.65765
337.87779
366.82596
390.8426
410.65487
426.95938
440.35142
451.35404
460.41281
467.89188
474.08406
479.22434
483.50201
487.07032
490.05393
492.55463
494.65585
42.524504
42.64607
43.188244
44.582733
48.533369
57.510951
72.276427
93.144886
119.32633
149.44649
182.63138
221.66994
264.54891
303.72749
337.94633
366.88836
390.898
410.7038
427.00269
440.39005
451.38893
460.44475
467.92154
474.11197
479.25093
483.52762
487.09524
490.07837
492.57879
494.67989
42.523765
42.644781
43.184926
44.572165
48.501747
57.452017
72.194613
93.05875
119.25293
149.40335
182.63034
221.71216
264.61321
303.79716
338.01469
366.95059
390.95325
410.7526
427.04589
440.42858
451.42371
460.47661
467.95113
474.13981
479.27745
483.55317
487.12009
490.10275
492.60289
494.70386
42.523027
42.643494
43.181617
44.561643
48.470244
57.393109
72.112737
92.972446
119.17929
149.36
182.62917
221.75428
264.67737
303.86665
338.08284
367.01262
391.00831
410.80123
427.08893
440.46696
451.45837
460.50834
467.98059
474.16753
479.30386
483.5786
487.14482
490.12702
492.62687
494.72772
42.52229
42.64221
43.178321
44.551167
48.438831
57.334223
72.030792
92.885973
119.10544
149.31645
182.62787
221.7963
264.74139
303.93597
338.1508
367.07448
391.06322
410.84974
427.13187
440.50525
451.49295
460.54
468.00999
474.19521
479.33022
483.60399
487.16952
490.15125
492.65083
494.75154
42.521554
42.640928
43.175042
44.540747
48.407544
57.275387
71.948789
92.799332
119.03135
149.27269
182.62644
221.83824
264.80526
304.00511
338.21856
367.13614
391.11795
410.89807
427.17464
440.54339
451.52738
460.57153
468.03926
474.22275
479.35645
483.62925
487.19409
490.17536
492.67465
494.77524
42.52082
42.639649
43.171773
44.530368
48.376341
57.216576
71.866719
92.71252
118.95702
149.22873
182.62487
221.88007
264.86899
304.07406
338.28613
367.19761
391.17251
410.94625
427.21729
440.58142
451.5617
460.60296
468.06845
474.25021
479.3826
483.65445
487.2186
490.1994
492.69842
494.79888
42.520087
42.638372
43.168513
44.520032
48.34527
57.157793
71.784584
92.625538
118.88245
149.18454
182.62317
221.92181
264.93256
304.14282
338.35348
367.25888
391.22688
410.99426
427.25976
440.61928
451.59588
460.63425
468.09749
474.27753
479.40863
483.67951
487.24298
490.22332
492.72205
494.82239
42.519355
42.637098
43.165262
44.509744
48.314278
57.099058
71.702396
92.538383
118.80765
149.14014
182.62134
221.96345
264.996
304.2114
338.42063
367.31996
391.28109
411.04212
427.30212
440.65706
451.62998
460.66547
468.12648
474.30481
479.43461
483.70453
487.26731
490.24719
492.74565
494.84586
42.518624
42.635827
43.162019
44.499506
48.283423
57.040349
71.620137
92.451057
118.73261
149.09552
182.61937
222.00498
265.05928
304.27977
338.48756
367.38083
391.3351
411.08981
427.34431
440.69466
451.66393
460.69654
468.15532
474.33194
479.46045
483.72941
487.29151
490.27093
492.76912
494.86921
42.517895
42.634558
43.158786
44.489315
48.252642
56.981673
71.537821
92.363558
118.65732
149.05067
182.61725
222.04641
265.1224
304.34795
338.55429
367.44151
391.38893
411.13733
427.38636
440.73215
451.69776
460.72751
468.18408
474.35899
479.48621
483.75422
487.31564
490.2946
492.79251
494.89248
42.517167
42.633293
43.155561
44.479161
48.222004
56.923046
71.455446
92.275886
118.58179
149.00561
182.61499
222.08772
265.18535
304.41593
338.62078
367.50195
391.44255
411.18466
427.42823
440.76946
451.73143
460.75833
468.21268
474.38589
479.51183
483.77889
487.33963
490.31814
492.81578
494.91562
42.51644
42.632032
43.152346
44.469059
48.191439
56.864444
71.373004
92.188039
118.50601
148.96032
182.61259
222.12893
265.24815
304.48371
338.68707
367.56221
391.49601
411.23185
427.46997
440.80668
451.76502
460.78908
468.24123
474.41275
479.53741
483.80352
487.36359
490.34164
492.839
494.93872
42.515715
42.630773
43.149139
44.458998
48.161016
56.805882
71.290511
92.100018
118.42999
148.9148
182.61003
222.17002
265.31077
304.55128
338.75313
367.62224
391.54925
411.27884
427.51153
440.84372
451.79844
460.81966
468.26961
474.43945
479.56283
483.828
487.38739
490.36499
492.86208
494.96167
42.514992
42.629517
43.145942
44.448992
48.130668
56.747367
71.207953
92.011821
118.35372
148.86905
182.60732
222.211
265.37323
304.61865
338.81896
367.68206
391.60231
411.32566
427.55295
440.88062
451.83175
460.85014
468.2979
474.46606
479.58817
483.8524
487.41112
490.38827
492.88509
494.98455
42.514269
42.628264
43.142753
44.439023
48.10046
56.688879
71.125335
91.923448
118.27719
148.82306
182.60446
222.25185
265.43553
304.6858
338.88456
367.74166
391.65514
411.37228
427.59417
440.91735
451.86488
460.88045
468.32603
474.49251
479.61335
483.87665
487.4347
490.4114
492.90795
495.00729
42.513549
42.627013
43.139578
44.429101
48.07033
56.630435
71.042668
91.834898
118.2004
148.77683
182.60144
222.29259
265.49765
304.75275
338.94993
367.80104
391.7078
411.41875
427.63526
440.95397
451.89792
460.91069
468.35409
474.5189
479.63848
483.90085
487.45823
490.43448
492.93076
495.02998
42.512831
42.625765
43.136419
44.41922
48.040337
56.572038
70.959935
91.74617
118.12337
148.73037
182.59826
222.3332
265.55959
304.81946
339.01506
367.86019
391.76023
411.465
427.67615
440.9904
451.93078
460.94075
468.38199
474.54513
479.66345
483.92489
487.48161
490.45741
492.95342
495.05252
42.512115
42.624521
43.133269
44.40939
48.010426
56.51367
70.877149
91.657264
118.04607
148.68366
182.59491
222.37368
265.62134
304.88595
339.07995
367.9191
391.81246
411.51107
427.71688
441.02668
451.96351
460.9707
468.40977
474.57126
479.68833
483.94884
487.50489
490.48025
492.976
495.07498
42.511401
42.623279
43.130128
44.399604
47.980648
56.45535
70.794311
91.568179
117.96851
148.63672
182.59139
222.41402
265.6829
304.9522
339.14458
367.97777
391.86445
411.55693
427.75741
441.06278
451.99606
461.00047
468.43739
474.59723
479.71305
483.97263
487.52803
490.50295
492.99843
495.09729
42.510688
42.62204
43.126995
44.389857
47.950955
56.397077
70.711408
91.478913
117.89069
148.58952
182.5877
222.45422
265.74427
305.01823
339.20897
368.03621
391.91625
411.60261
427.7978
441.09876
452.02852
461.03016
468.46494
474.62313
479.73771
483.99637
487.55111
490.52559
493.0208
495.11955
42.509977
42.620803
43.123872
44.380157
47.921393
56.338834
70.62846
91.389465
117.81261
148.54207
182.58383
222.49427
265.80543
305.084
339.27309
368.0944
391.9678
411.64807
427.83797
441.13453
452.06077
461.05966
468.4923
474.64886
479.7622
484.01994
487.57403
490.54806
493.04302
495.14164
42.509268
42.619572
43.120757
44.370497
47.891918
56.280643
70.545456
91.299836
117.73425
148.49435
182.57979
222.53418
265.86639
305.14953
339.33696
368.15234
392.01914
411.69333
427.87797
441.17014
452.09289
461.08903
468.51955
474.67447
479.78658
484.04341
487.59685
490.57044
493.06513
495.16363
42.50856
42.618344
43.117651
44.36089
47.862574
56.222499
70.462393
91.210023
117.65563
148.44638
182.57555
222.57393
265.92713
305.21481
339.40054
368.21001
392.07021
411.73836
427.91774
441.20555
452.1248
461.11821
468.54661
474.69991
479.81078
484.06671
487.61949
490.59265
493.08708
495.18547
42.507855
42.61712
43.114554
44.35132
47.833317
56.164388
70.379288
91.120027
117.57673
148.39816
182.57113
222.61351
265.98765
305.27983
339.46386
368.26743
392.12108
411.78319
427.95736
441.24082
452.15661
461.1473
468.57359
474.72526
479.83491
484.08993
487.64208
490.6148
493.10897
495.20724
42.50715
42.615898
43.111465
44.341795
47.80419
56.106332
70.296126
91.029846
117.49756
148.34967
182.56651
222.65292
266.04795
305.34458
339.5269
368.32458
392.17168
411.82779
427.99674
441.27588
452.1882
461.17618
468.60036
474.75043
479.85886
484.11298
487.66448
490.63677
493.13068
495.22883
42.506448
42.61468
43.108386
44.33231
47.775152
56.048324
70.212909
90.93948
117.41812
148.30091
182.5617
222.69216
266.10803
305.40907
339.58965
368.38146
392.22205
411.87217
428.03594
441.31076
452.21963
461.20492
468.62701
474.77547
479.88269
484.13591
487.68677
490.65863
493.15228
495.25032
42.505748
42.613464
43.105316
44.322872
47.746244
55.990352
70.129654
90.848927
117.33841
148.25189
182.55669
222.73123
266.16787
305.47327
339.65211
368.43806
392.27215
411.9163
428.0749
441.34542
452.25086
461.23345
468.65346
474.80033
479.90634
484.15866
487.70888
490.68032
493.17371
495.27163
42.505049
42.612251
43.102258
44.313478
47.717424
55.932437
70.046342
90.758187
117.2584
148.20259
182.55147
222.77012
266.22747
305.53721
339.71429
368.4944
392.32201
411.96023
428.11368
441.37993
452.28196
461.26188
468.67982
474.82509
479.92989
484.18133
487.73092
490.70193
493.19506
495.29287
42.504353
42.611042
43.099214
44.304122
47.688734
55.87457
69.96298
90.667258
117.17813
148.15301
182.54605
222.80882
266.28682
305.60085
339.77616
368.55044
392.3716
412.00389
428.15222
441.41421
452.31284
461.29009
468.70596
474.84965
479.95325
484.2038
487.75276
490.72334
493.21623
495.31391
42.503658
42.609835
43.096181
44.294812
47.660133
55.816743
69.879582
90.576139
117.09757
148.10316
182.5404
222.84732
266.3459
305.66419
339.83773
368.6062
392.42093
412.04733
428.19055
441.4483
452.34354
461.31814
468.73195
474.87406
479.97648
484.22615
487.77447
490.74464
493.23727
495.33484
42.502965
42.608631
43.093157
44.285538
47.631662
55.758975
69.79613
90.484829
117.01671
148.05304
182.53454
222.88561
266.40472
305.72723
339.89897
368.66164
392.46997
412.09049
428.22863
441.48216
452.37402
461.34597
468.75774
474.89828
479.99951
484.2483
487.796
490.76574
493.25812
495.35558
42.502275
42.607431
43.090141
44.276315
47.603279
55.701256
69.712631
90.393327
116.93558
148.00263
182.52845
222.9237
266.46328
305.78998
339.95992
368.71681
392.51876
412.13344
428.26652
441.51584
452.40435
461.37367
468.78341
474.92238
480.02243
484.27035
487.81743
490.78675
493.27888
495.37623
42.501586
42.606234
43.087134
44.26713
47.575027
55.643581
69.629099
90.301631
116.85416
147.95193
182.52214
222.96157
266.52156
305.8524
340.02053
368.77166
392.56725
412.17611
428.30415
441.54928
452.43444
461.40115
468.80886
474.94628
480.04515
484.2922
487.83865
490.80756
493.29944
495.39668
42.5009
42.605039
43.084136
44.257988
47.546862
55.585966
69.545514
90.209741
116.77244
147.90094
182.51559
222.99922
266.57956
305.91452
340.08083
368.82622
392.61548
412.21854
428.34156
441.58252
452.46436
461.42846
468.83415
474.97002
480.06772
484.3139
487.85974
490.82824
493.31987
495.41699
42.500216
42.603848
43.081146
44.248885
47.51883
55.528401
69.461888
90.117655
116.69044
147.84966
182.50881
223.03665
266.63728
305.97631
340.14078
368.88044
392.6634
412.26068
428.3787
441.61551
452.49404
461.45554
468.85922
474.99355
480.09009
484.33541
487.88064
490.84872
493.3401
495.43712
42.499533
42.60266
43.078165
44.239819
47.490884
55.470885
69.378231
90.025371
116.60814
147.79808
182.50179
223.07384
266.6947
306.03777
340.20041
368.93437
392.71105
412.30259
428.41564
441.64832
452.52355
461.48248
468.88416
475.01696
480.11233
484.3568
487.90141
490.86909
493.36022
495.45713
42.498853
42.601476
43.075193
44.230805
47.46307