/*--------------------------------*- C++ -*----------------------------------*\
| =========                 |                                                 |
| \\      /  F ield         | OpenFOAM: The Open Source CFD Toolbox           |
|  \\    /   O peration     | Version:  v2012                                 |
|   \\  /    A nd           | Website:  www.openfoam.com                      |
|    \\/     M anipulation  |                                                 |
\*---------------------------------------------------------------------------*/
FoamFile
{
    version     2.0;
    format      ascii;
    class       volVectorField;
    location    "500";
    object      U;
}
// * * * * * * * * * * * * * * * * * * * * * * * * * * * * * * * * * * * * * //

dimensions      [0 1 -1 0 0 0 0];


internalField   nonuniform List<vector> 
24000
(
(28.009866 -0.0047085427 0)
(28.16823 -0.014318022 0)
(28.465078 -0.018279225 0)
(28.839588 -0.022273146 0)
(29.576664 -0.025867973 0)
(30.943448 -0.02427546 0)
(32.785304 -0.02163176 0)
(34.853398 -0.017285527 0)
(36.879858 -0.013293278 0)
(38.547218 -0.0093913533 0)
(39.587266 -0.0069078996 0)
(39.797725 -0.0057205706 0)
(38.675199 -0.006133344 0)
(36.221206 -0.0057513284 0)
(32.823387 -0.0058245024 0)
(28.939032 -0.0051847531 0)
(24.988625 -0.0045179142 0)
(21.219715 -0.0039594619 0)
(17.765982 -0.0034297804 0)
(14.692779 -0.0028421265 0)
(12.012487 -0.0022646607 0)
(9.7034771 -0.0017246912 0)
(7.7300099 -0.0012480483 0)
(6.0526196 -0.00085285643 0)
(4.6327271 -0.0005452153 0)
(3.4345838 -0.00032053004 0)
(2.426028 -0.00016766712 0)
(1.5786711 -7.2378785e-05 0)
(0.86778912 -2.1776562e-05 0)
(0.27206346 -7.934187e-07 0)
(28.000143 -0.005265297 0)
(28.159556 -0.016747972 0)
(28.459094 -0.024643965 0)
(28.839163 -0.031061394 0)
(29.578978 -0.027060765 0)
(30.941531 -0.012955476 0)
(32.778515 -0.0040159847 0)
(34.840392 0.0034028518 0)
(36.861633 0.0079132323 0)
(38.526214 0.0099233779 0)
(39.565415 0.008807309 0)
(39.776673 0.0067955162 0)
(38.657718 0.0041221444 0)
(36.208857 0.0024095712 0)
(32.816571 0.00066101272 0)
(28.937789 -0.00049901232 0)
(24.993085 -0.0011995307 0)
(21.229866 -0.0015210076 0)
(17.781863 -0.001563191 0)
(14.714083 -0.0014246524 0)
(12.038243 -0.001191563 0)
(9.7320754 -0.00092887338 0)
(7.7594932 -0.00067888364 0)
(6.0810333 -0.00046506265 0)
(4.658398 -0.00029655639 0)
(3.4562739 -0.00017315556 0)
(2.4429769 -8.9500419e-05 0)
(1.5905639 -3.7829056e-05 0)
(0.87468596 -1.0912585e-05 0)
(0.27431666 -2.985048e-07 0)
(27.991216 -0.0055839839 0)
(28.15001 -0.017797607 0)
(28.44718 -0.026405463 0)
(28.821403 -0.032297153 0)
(29.55252 -0.025968462 0)
(30.91018 -0.009669046 0)
(32.745792 0.00035141068 0)
(34.805825 0.0086786376 0)
(36.827358 0.013544651 0)
(38.493707 0.01552177 0)
(39.534384 0.014329956 0)
(39.746521 0.011715001 0)
(38.6295 0.0088060204 0)
(36.18375 0.0066262702 0)
(32.795228 0.0046296196 0)
(28.92082 0.0032737871 0)
(24.979062 0.002373017 0)
(21.217475 0.0017679103 0)
(17.769835 0.0013424577 0)
(14.701478 0.0010225276 0)
(12.024708 0.00076805206 0)
(9.7178397 0.00056072018 0)
(7.7451683 0.00039395722 0)
(6.0673735 0.000263804 0)
(4.6461085 0.00016604936 0)
(3.4459008 9.6507744e-05 0)
(2.4348648 5.0009229e-05 0)
(1.5848597 2.1328401e-05 0)
(0.87136687 6.1958477e-06 0)
(0.27322684 1.215334e-07 0)
(27.981666 -0.0058407762 0)
(28.140011 -0.018585172 0)
(28.435963 -0.027518771 0)
(28.807991 -0.032989271 0)
(29.535353 -0.025344298 0)
(30.889098 -0.0078582022 0)
(32.722166 0.0032249051 0)
(34.77932 0.01275998 0)
(36.799762 0.017992653 0)
(38.46633 0.019991586 0)
(39.507506 0.018717835 0)
(39.719943 0.015714286 0)
(38.603989 0.012247746 0)
(36.160559 0.0092649323 0)
(32.77514 0.0064631464 0)
(28.904481 0.0043174606 0)
(24.966423 0.0027502154 0)
(21.208295 0.0016643769 0)
(17.76389 0.00094798524 0)
(14.698485 0.00050095469 0)
(12.024218 0.00023942415 0)
(9.7192664 9.7079651e-05 0)
(7.7478646 2.7739737e-05 0)
(6.07072 -1.663797e-06 0)
(4.6495791 -1.0641507e-05 0)
(3.4490904 -9.9397682e-06 0)
(2.4374973 -6.4560127e-06 0)
(1.586777 -3.1117578e-06 0)
(0.87250876 -9.6507714e-07 0)
(0.27360849 -1.3483096e-08 0)
(27.971913 -0.0060123652 0)
(28.129776 -0.019031296 0)
(28.424602 -0.027992142 0)
(28.794763 -0.033108444 0)
(29.518596 -0.02484751 0)
(30.868259 -0.00692191 0)
(32.698173 0.0048420501 0)
(34.75279 0.015179066 0)
(36.772171 0.020552449 0)
(38.43874 0.022664223 0)
(39.480081 0.021414659 0)
(39.692199 0.018338908 0)
(38.576212 0.014615772 0)
(36.133958 0.011315326 0)
(32.750705 0.008205808 0)
(28.883206 0.0057866556 0)
(24.948499 0.0039912578 0)
(21.19346 0.0027114906 0)
(17.751706 0.0018204916 0)
(14.688466 0.0012096228 0)
(12.015926 0.00079469517 0)
(9.7123714 0.00051397922 0)
(7.7421455 0.00032520643 0)
(6.0660316 0.00019953042 0)
(4.6458188 0.00011716552 0)
(3.4461782 6.4586527e-05 0)
(2.4353599 3.2190774e-05 0)
(1.5853408 1.3369682e-05 0)
(0.87169854 3.8122407e-06 0)
(0.27334845 9.91536e-08 0)
(27.962013 -0.0061215756 0)
(28.119462 -0.019279284 0)
(28.413397 -0.028189154 0)
(28.782102 -0.033080403 0)
(29.502758 -0.024523004 0)
(30.848447 -0.0063716895 0)
(32.675035 0.0058411759 0)
(34.727374 0.016693878 0)
(36.745647 0.022154602 0)
(38.412066 0.024363253 0)
(39.453395 0.023149996 0)
(39.664915 0.020006107 0)
(38.548374 0.016116174 0)
(36.106762 0.012557141 0)
(32.725255 0.009186268 0)
(28.860657 0.0065173158 0)
(24.929235 0.0045045916 0)
(21.177405 0.0030487273 0)
(17.738612 0.0020254897 0)
(14.677996 0.0013231312 0)
(12.007686 0.0008502711 0)
(9.7059793 0.00053619463 0)
(7.7372585 0.00033037306 0)
(6.0623561 0.00019743278 0)
(4.6431104 0.00011311153 0)
(3.4442384 6.0905828e-05 0)
(2.4340302 2.9740812e-05 0)
(1.5844967 1.2188487e-05 0)
(0.87124331 3.4755878e-06 0)
(0.27320799 1.3114231e-07 0)
(27.952037 -0.0061868604 0)
(28.109127 -0.019402508 0)
(28.402298 -0.028243231 0)
(28.769707 -0.032996996 0)
(29.487289 -0.024309073 0)
(30.829042 -0.0060421824 0)
(32.652226 0.0064612597 0)
(34.702414 0.017645365 0)
(36.719556 0.023165249 0)
(38.385724 0.025452719 0)
(39.426911 0.024274198 0)
(39.637615 0.021106161 0)
(38.520114 0.017115163 0)
(36.078712 0.013405735 0)
(32.698597 0.0098801478 0)
(28.836675 0.0070648511 0)
(24.908438 0.0049257726 0)
(21.159805 0.0033661563 0)
(17.724009 0.0022604016 0)
(14.666072 0.0014936624 0)
(11.998062 0.00097133481 0)
(9.6982939 0.00061983838 0)
(7.7311933 0.00038626667 0)
(6.0576418 0.00023327972 0)
(4.6395223 0.00013490223 0)
(3.4415892 7.3302228e-05 0)
(2.432164 3.6064281e-05 0)
(1.5832842 1.482514e-05 0)
(0.87057704 4.2205044e-06 0)
(0.27299897 1.4601561e-07 0)
(27.942024 -0.0062242864 0)
(28.098798 -0.01945502 0)
(28.391291 -0.028233612 0)
(28.75749 -0.032908051 0)
(29.472063 -0.0241773 0)
(30.809884 -0.0058490152 0)
(32.629702 0.0068493406 0)
(34.677778 0.018249568 0)
(36.693782 0.023812693 0)
(38.359646 0.026158776 0)
(39.400618 0.025008366 0)
(39.610374 0.021824869 0)
(38.491662 0.017769957 0)
(36.050206 0.013958351 0)
(32.671269 0.010327395 0)
(28.811887 0.0074107056 0)
(24.886786 0.0051835682 0)
(21.141369 0.0035519499 0)
(17.708638 0.002390272 0)
(14.653479 0.0015819629 0)
(11.987884 0.0010297894 0)
(9.6901645 0.00065746453 0)
(7.7247841 0.00040972061 0)
(6.0526691 0.00024733604 0)
(4.6357457 0.00014291746 0)
(3.4388071 7.7468813e-05 0)
(2.4302087 3.8007108e-05 0)
(1.5820163 1.5616699e-05 0)
(0.86988161 4.4716305e-06 0)
(0.27278118 1.7612737e-07 0)
(27.931999 -0.0062450894 0)
(28.088487 -0.019469358 0)
(28.380352 -0.028198652 0)
(28.745382 -0.032830607 0)
(29.45698 -0.024105553 0)
(30.790868 -0.0057441804 0)
(32.607352 0.0070905238 0)
(34.653336 0.018633994 0)
(36.668197 0.024231556 0)
(38.333723 0.026621568 0)
(39.374431 0.025494194 0)
(39.583149 0.02230408 0)
(38.463055 0.018209464 0)
(36.021362 0.014331635 0)
(32.643454 0.010632302 0)
(28.786517 0.0076492671 0)
(24.864514 0.0053642753 0)
(21.12232 0.0036850716 0)
(17.692689 0.0024859534 0)
(14.640363 0.0016491872 0)
(11.977241 0.0010759903 0)
(9.6816336 0.00068849575 0)
(7.7180357 0.00043002214 0)
(6.0474169 0.00026020469 0)
(4.6317458 0.00015072562 0)
(3.4358535 8.2015517e-05 0)
(2.4281285 4.0407568e-05 0)
(1.5806653 1.6623404e-05 0)
(0.86913959 4.7160242e-06 0)
(0.27254854 1.5851354e-07 0)
(27.921972 -0.0062566904 0)
(28.078194 -0.019464969 0)
(28.369461 -0.028157625 0)
(28.733345 -0.032769982 0)
(29.441993 -0.024077762 0)
(30.771944 -0.0057006343 0)
(32.585115 0.0072337612 0)
(34.62902 0.018876243 0)
(36.642737 0.024501795 0)
(38.307905 0.02692603 0)
(39.348315 0.025819164 0)
(39.555935 0.022626059 0)
(38.434345 0.01850673 0)
(35.992293 0.014583575 0)
(32.615315 0.010837681 0)
(28.760759 0.0078093395 0)
(24.841829 0.0054847562 0)
(21.102862 0.0037728879 0)
(17.676358 0.0025481586 0)
(14.626902 0.0016921292 0)
(11.9663 0.0011048459 0)
(9.6728503 0.00070730263 0)
(7.711079 0.00044183812 0)
(6.0419973 0.0002672794 0)
(4.6276151 0.00015471899 0)
(3.4328014 8.4007548e-05 0)
(2.4259781 4.1274294e-05 0)
(1.5792681 1.6967656e-05 0)
(0.86837206 4.8481521e-06 0)
(0.27230786 1.8563297e-07 0)
(27.911951 -0.0062637013 0)
(28.067919 -0.019452855 0)
(28.358605 -0.028119561 0)
(28.721358 -0.032726558 0)
(29.427071 -0.024082395 0)
(30.753082 -0.0057006245 0)
(32.562952 0.0073097556 0)
(34.604787 0.019023937 0)
(36.617357 0.02467418 0)
(38.282155 0.027126972 0)
(39.322245 0.026038694 0)
(39.528727 0.022845371 0)
(38.405561 0.018711219 0)
(35.963066 0.014757225 0)
(32.586949 0.010980004 0)
(28.734729 0.0079207772 0)
(24.818854 0.0055690998 0)
(21.083119 0.0038347465 0)
(17.65976 0.0025923068 0)
(14.613202 0.00172283 0)
(11.955149 0.0011256746 0)
(9.6638887 0.0007210814 0)
(7.7039746 0.00045070774 0)
(6.0364582 0.0002728148 0)
(4.6233906 0.00015802281 0)
(3.4296783 8.593225e-05 0)
(2.4237765 4.2286987e-05 0)
(1.5778372 1.7380431e-05 0)
(0.86758579 4.9492866e-06 0)
(0.27206125 1.7911352e-07 0)
(27.901938 -0.0062688236 0)
(28.057658 -0.019438931 0)
(28.347775 -0.028088095 0)
(28.709404 -0.032698766 0)
(29.412197 -0.024111448 0)
(30.734267 -0.0057323536 0)
(32.540839 0.0073385564 0)
(34.580609 0.01910794 0)
(36.592033 0.024781036 0)
(38.25645 0.027258699 0)
(39.296208 0.02618758 0)
(39.501523 0.022995445 0)
(38.376726 0.018852387 0)
(35.933729 0.014876924 0)
(32.558424 0.011078064 0)
(28.708509 0.0079974155 0)
(24.795675 0.0056269154 0)
(21.063173 0.0038769014 0)
(17.642971 0.0026221615 0)
(14.599329 0.0017434272 0)
(11.943848 0.0011394871 0)
(9.6547989 0.00073005705 0)
(7.6967635 0.00045630635 0)
(6.0308328 0.00027613081 0)
(4.6190982 0.00015986445 0)
(3.4265038 8.6784635e-05 0)
(2.421538 4.2619834e-05 0)
(1.576382 1.7511925e-05 0)
(0.866786 5.0111677e-06 0)
(0.27181034 1.9668803e-07 0)
(27.891933 -0.0062735824 0)
(28.047408 -0.019426226 0)
(28.336965 -0.028064227 0)
(28.697476 -0.032684205 0)
(29.397359 -0.024158734 0)
(30.715487 -0.0057872439 0)
(32.51876 0.007333819 0)
(34.556471 0.0191477 0)
(36.566746 0.024842119 0)
(38.230778 0.027342348 0)
(39.270195 0.026288699 0)
(39.474324 0.023098856 0)
(38.347857 0.018950972 0)
(35.904315 0.014960841 0)
(32.529789 0.011147204 0)
(28.682156 0.0080520346 0)
(24.772356 0.0056686113 0)
(21.043088 0.0039077929 0)
(17.626052 0.0026444971 0)
(14.58534 0.0017592064 0)
(11.932446 0.0011504344 0)
(9.6456239 0.00073752016 0)
(7.6894822 0.00046132254 0)
(6.0251508 0.00027944238 0)
(4.6147615 0.00016198112 0)
(3.4232959 8.8152847e-05 0)
(2.4192757 4.3418587e-05 0)
(1.574911 1.785683e-05 0)
(0.86597744 5.0739693e-06 0)
(0.27155666 1.7716317e-07 0)
(27.881935 -0.0062787685 0)
(28.037168 -0.019416163 0)
(28.326169 -0.028047791 0)
(28.685568 -0.032680323 0)
(29.382552 -0.024219998 0)
(30.696738 -0.0058592249 0)
(32.496708 0.0073046592 0)
(34.532363 0.019155498 0)
(36.541489 0.024870914 0)
(38.205131 0.027391985 0)
(39.244203 0.026355411 0)
(39.447132 0.023168569 0)
(38.318966 0.019018525 0)
(35.874849 0.015018295 0)
(32.501079 0.011194179 0)
(28.655712 0.0080889305 0)
(24.748936 0.005696437 0)
(21.022903 0.0039280626 0)
(17.609039 0.0026587983 0)
(14.571266 0.0017690072 0)
(11.920968 0.0011569128 0)
(9.6363843 0.00074162651 0)
(7.6821471 0.00046377064 0)
(6.0194254 0.00028077729 0)
(4.6103908 0.000162628 0)
(3.4200622 8.8335219e-05 0)
(2.4169948 4.3406956e-05 0)
(1.5734279 1.7839787e-05 0)
(0.86516215 5.0983191e-06 0)
(0.27130085 1.9600169e-07 0)
(27.871944 -0.0062847695 0)
(28.026936 -0.019409237 0)
(28.315386 -0.028037989 0)
(28.673675 -0.032684925 0)
(29.36777 -0.024291393 0)
(30.678016 -0.0059441183 0)
(32.474676 0.0072580461 0)
(34.508278 0.019140379 0)
(36.516254 0.024876959 0)
(38.179503 0.027417917 0)
(39.218227 0.026398175 0)
(39.419946 0.023215075 0)
(38.290061 0.019065068 0)
(35.845348 0.015058585 0)
(32.472315 0.011227468 0)
(28.629203 0.0081155716 0)
(24.725447 0.0057168074 0)
(21.002648 0.0039431811 0)
(17.59196 0.0026697113 0)
(14.557132 0.0017766612 0)
(11.909439 0.001162146 0)
(9.6271014 0.00074512081 0)
(7.6747763 0.00046606128 0)
(6.0136712 0.00028225325 0)
(4.6059976 0.00016354733 0)
(3.4168116 8.8939606e-05 0)
(2.4147018 4.3761026e-05 0)
(1.5719368 1.7983809e-05 0)
(0.86434243 5.1235325e-06 0)
(0.27104363 1.8691951e-07 0)
(27.861957 -0.0062917176 0)
(28.016708 -0.019405444 0)
(28.304612 -0.028033851 0)
(28.661796 -0.032696163 0)
(29.35301 -0.024371785 0)
(30.659319 -0.0060383406 0)
(32.45266 0.0071991733 0)
(34.484211 0.019108746 0)
(36.491035 0.024867277 0)
(38.153891 0.027426412 0)
(39.192266 0.02642244 0)
(39.392768 0.023244168 0)
(38.261149 0.019095184 0)
(35.815824 0.015084567 0)
(32.443516 0.011249059 0)
(28.602648 0.0081328593 0)
(24.701906 0.0057298169 0)
(20.982342 0.0039526263 0)
(17.574832 0.0026763489 0)
(14.542952 0.0017811949 0)
(11.897869 0.0011651179 0)
(9.6177825 0.00074698401 0)
(7.6673752 0.00046713641 0)
(6.0078921 0.00028280513 0)
(4.6015846 0.00016378208 0)
(3.4135459 8.8939672e-05 0)
(2.4123979 4.368892e-05 0)
(1.5704385 1.7948013e-05 0)
(0.86351868 5.1342494e-06 0)
(0.27078513 1.9991473e-07 0)
(27.851975 -0.006299625 0)
(28.006483 -0.019404543 0)
(28.293845 -0.028034543 0)
(28.64993 -0.032712577 0)
(29.338272 -0.024459722 0)
(30.640642 -0.0061393122 0)
(32.430657 0.0071313897 0)
(34.460159 0.019065273 0)
(36.465831 0.024846589 0)
(38.128293 0.027421918 0)
(39.166319 0.026432175 0)
(39.3656 0.023260335 0)
(38.232236 0.019113511 0)
(35.786287 0.015100583 0)
(32.414695 0.011263328 0)
(28.576066 0.0081448693 0)
(24.678335 0.0057393989 0)
(20.962005 0.0039600513 0)
(17.557675 0.0026820241 0)
(14.528747 0.0017854496 0)
(11.886277 0.001168314 0)
(9.608446 0.00074936236 0)
(7.6599598 0.00046892878 0)
(6.0021017 0.00028414879 0)
(4.5971628 0.00016475903 0)
(3.4102737 8.9689197e-05 0)
(2.4100894 4.4187111e-05 0)
(1.568937 1.8176833e-05 0)
(0.8626932 5.1646314e-06 0)
(0.27052608 1.7997817e-07 0)
(27.841995 -0.0063084154 0)
(27.996261 -0.019406194 0)
(28.283085 -0.028039263 0)
(28.638074 -0.03273298 0)
(29.323555 -0.024552165 0)
(30.621985 -0.0062453983 0)
(32.408667 0.0070569325 0)
(34.436121 0.019012489 0)
(36.440641 0.024816905 0)
(38.102709 0.02740769 0)
(39.140387 0.026431682 0)
(39.338445 0.023266667 0)
(38.203328 0.01912275 0)
(35.756746 0.015108197 0)
(32.385865 0.011270106 0)
(28.549468 0.0081503049 0)
(24.654745 0.0057434463 0)
(20.941647 0.0039628709 0)
(17.540498 0.0026838539 0)
(14.514523 0.0017865595 0)
(11.874668 0.0011688747 0)
(9.5990938 0.00074954836 0)
(7.652531 0.00046884669 0)
(5.9963003 0.00028390482 0)
(4.5927324 0.00016446035 0)
(3.4069949 8.9335547e-05 0)
(2.4077761 4.3898151e-05 0)
(1.5674325 1.8038899e-05 0)
(0.86186603 5.1541991e-06 0)
(0.2702665 1.9692521e-07 0)
(27.832016 -0.0063179803 0)
(27.986039 -0.019409994 0)
(28.272329 -0.028047247 0)
(28.626228 -0.032756543 0)
(29.308856 -0.024648326 0)
(30.603347 -0.0063552823 0)
(32.386687 0.0069775573 0)
(34.412096 0.018952206 0)
(36.415462 0.024780503 0)
(38.077137 0.027386737 0)
(39.114469 0.026424677 0)
(39.311301 0.023266547 0)
(38.174426 0.019126275 0)
(35.727206 0.015110954 0)
(32.357031 0.011273065 0)
(28.522864 0.0081530085 0)
(24.631145 0.0057457889 0)
(20.92128 0.0039648097 0)
(17.523311 0.0026853897 0)
(14.50029 0.0017877295 0)
(11.86305 0.0011697479 0)
(9.5897351 0.00075019298 0)
(7.645097 0.00046934103 0)
(5.9904949 0.00028429699 0)
(4.5882989 0.00016476375 0)
(3.4037137 8.9622107e-05 0)
(2.4054612 4.4108032e-05 0)
(1.5659269 1.8128255e-05 0)
(0.86103823 5.1635386e-06 0)
(0.27000672 1.8715004e-07 0)
(27.822039 -0.0063281815 0)
(27.975817 -0.01941548 0)
(28.261577 -0.028057928 0)
(28.614392 -0.032782795 0)
(29.294176 -0.024747652 0)
(30.584727 -0.0064681419 0)
(32.364718 0.0068952243 0)
(34.388082 0.018886796 0)
(36.390293 0.024738682 0)
(38.051577 0.027360129 0)
(39.088563 0.026412394 0)
(39.284169 0.023260921 0)
(38.145534 0.019124585 0)
(35.697671 0.015108949 0)
(32.328199 0.011271814 0)
(28.496257 0.0081519783 0)
(24.607542 0.0057449143 0)
(20.900906 0.003964036 0)
(17.506117 0.0026846836 0)
(14.486049 0.0017871142 0)
(11.851425 0.0011691852 0)
(9.5803684 0.00074968586 0)
(7.6376556 0.00046885716 0)
(5.9846828 0.00028384735 0)
(4.5838598 0.00016437463 0)
(3.4004282 8.9239841e-05 0)
(2.403143 4.3820628e-05 0)
(1.5644191 1.7994853e-05 0)
(0.86020921 5.1480892e-06 0)
(0.26974655 1.9994297e-07 0)
(27.812061 -0.0063388844 0)
(27.965595 -0.019422254 0)
(28.250828 -0.02807087 0)
(28.602564 -0.032811319 0)
(29.279513 -0.024849577 0)
(30.566125 -0.006583383 0)
(32.342758 0.0068109141 0)
(34.364079 0.018817539 0)
(36.365134 0.02469247 0)
(38.026027 0.027329054 0)
(39.06267 0.026396498 0)
(39.25705 0.02325209 0)
(38.116652 0.019120945 0)
(35.668145 0.015105753 0)
(32.299374 0.011270055 0)
(28.469657 0.0081512124 0)
(24.583942 0.0057448781 0)
(20.880536 0.0039644534 0)
(17.488926 0.0026853808 0)
(14.471812 0.0017879318 0)
(11.839803 0.0011700693 0)
(9.5710052 0.0007505468 0)
(7.6302173 0.00046968919 0)
(5.9788735 0.00028461015 0)
(4.5794229 0.0001650215 0)
(3.3971443 8.9825936e-05 0)
(2.400826 4.4248938e-05 0)
(1.5629121 1.8198568e-05 0)
(0.85938059 5.1723678e-06 0)
(0.2694865 1.8060336e-07 0)
(27.802082 -0.0063499509 0)
(27.955371 -0.019429959 0)
(28.240083 -0.028085636 0)
(28.590744 -0.032841745 0)
(29.264868 -0.024953332 0)
(30.54754 -0.0067004233 0)
(32.320807 0.0067243552 0)
(34.340085 0.018744327 0)
(36.339984 0.024642493 0)
(38.000487 0.027294399 0)
(39.036789 0.026377435 0)
(39.229944 0.023239783 0)
(38.087781 0.019114092 0)
(35.638628 0.015099685 0)
(32.270559 0.011265135 0)
(28.443063 0.0081474344 0)
(24.560346 0.0057419736 0)
(20.860168 0.0039621616 0)
(17.471736 0.0026835282 0)
(14.457574 0.0017864525 0)
(11.82818 0.0011688423 0)
(9.5616402 0.00074952744 0)
(7.6227771 0.00046880732 0)
(5.9730624 0.00028384893 0)
(4.5749846 0.00016439745 0)
(3.3938593 8.9267812e-05 0)
(2.3985082 4.384289e-05 0)
(1.5614046 1.8006683e-05 0)
(0.85855174 5.1464011e-06 0)
(0.26922639 1.9677841e-07 0)
(27.792103 -0.0063612612 0)
(27.945145 -0.019438325 0)
(28.229341 -0.028101862 0)
(28.578933 -0.032873783 0)
(29.250241 -0.025058666 0)
(30.528973 -0.0068190513 0)
(32.298864 0.0066361172 0)
(34.3161 0.018668233 0)
(36.314841 0.024589915 0)
(37.974956 0.027257369 0)
(39.01092 0.026356335 0)
(39.20285 0.023225278 0)
(38.058922 0.019105231 0)
(35.609122 0.015092733 0)
(32.241753 0.011259755 0)
(28.416478 0.0081437532 0)
(24.536758 0.0057396119 0)
(20.839807 0.0039606988 0)
(17.454553 0.0026826724 0)
(14.443341 0.0017860007 0)
(11.816562 0.0011686514 0)
(9.552279 0.00074949639 0)
(7.6153402 0.00046889517 0)
(5.9672541 0.00028401144 0)
(4.5705485 0.0001645838 0)
(3.390576 8.9506784e-05 0)
(2.3961916 4.4039697e-05 0)
(1.5598979 1.8095017e-05 0)
(0.8577233 5.1551211e-06 0)
(0.2689664 1.86798e-07 0)
(27.782123 -0.0063727345 0)
(27.934918 -0.019447292 0)
(28.218603 -0.028119323 0)
(28.567131 -0.032907005 0)
(29.235631 -0.025165415 0)
(30.510425 -0.0069389339 0)
(32.27693 0.0065472912 0)
(34.292125 0.018590598 0)
(36.289706 0.024535783 0)
(37.949434 0.027218233 0)
(38.985062 0.026332884 0)
(39.175769 0.023208715 0)
(38.030075 0.019093946 0)
(35.579627 0.015083348 0)
(32.212959 0.011252182 0)
(28.389902 0.0081379837 0)
(24.513177 0.005735222 0)
(20.819451 0.0039573616 0)
(17.437372 0.0026801498 0)
(14.42911 0.0017841346 0)
(11.804943 0.0011672463 0)
(9.5429167 0.00074844136 0)
(7.6079015 0.00046806678 0)
(5.9614437 0.00028335667 0)
(4.5661104 0.00016407921 0)
(3.387291 8.9069956e-05 0)
(2.3938737 4.3730529e-05 0)
(1.5583902 1.7952358e-05 0)
(0.85689432 5.135609e-06 0)
(0.26870623 1.9857339e-07 0)
(27.772141 -0.0063843269 0)
(27.924689 -0.019456841 0)
(28.207867 -0.028137852 0)
(28.555336 -0.032940985 0)
(29.221038 -0.025273027 0)
(30.491894 -0.0070597155 0)
(32.255005 0.0064579651 0)
(34.268159 0.018511959 0)
(36.264579 0.024481255 0)
(37.92392 0.027177767 0)
(38.959215 0.026307197 0)
(39.148702 0.023190827 0)
(38.001243 0.019081387 0)
(35.550148 0.015073102 0)
(32.184181 0.011245039 0)
(28.363343 0.0081333266 0)
(24.489611 0.0057323344 0)
(20.799109 0.003955739 0)
(17.420205 0.0026794479 0)
(14.414891 0.0017840213 0)
(11.793336 0.0011675385 0)
(9.5335643 0.00074893674 0)
(7.6004714 0.00046869175 0)
(5.9556405 0.00028401077 0)
(4.561678 0.00016467724 0)
(3.3840104 8.9642476e-05 0)
(2.3915589 4.4160948e-05 0)
(1.5568846 1.8162567e-05 0)
(0.85606646 5.1609134e-06 0)
(0.26844642 1.7883857e-07 0)
(27.762157 -0.0063959937 0)
(27.914457 -0.019466903 0)
(28.197134 -0.028157253 0)
(28.54355 -0.032975456 0)
(29.206462 -0.025381094 0)
(30.473381 -0.0071815283 0)
(32.233087 0.0063675048 0)
(34.244202 0.018432364 0)
(36.239459 0.024426274 0)
(37.898416 0.027136312 0)
(38.933381 0.026279521 0)
(39.121648 0.023170883 0)
(37.972426 0.019066401 0)
(35.520684 0.015060046 0)
(32.15542 0.011235142 0)
(28.336799 0.0081258354 0)
(24.466058 0.0057265517 0)
(20.778777 0.003951307 0)
(17.403046 0.002676049 0)
(14.400679 0.0017814507 0)
(11.781733 0.0011655523 0)
(9.5242155 0.00074740494 0)
(7.5930439 0.00046747024 0)
(5.9498393 0.00028303137 0)
(4.5572471 0.00016391787 0)
(3.3807309 8.9001768e-05 0)
(2.3892449 4.3708412e-05 0)
(1.5553795 1.7949234e-05 0)
(0.85523894 5.1294306e-06 0)
(0.26818672 1.9518412e-07 0)
(27.752171 -0.0064077234 0)
(27.904222 -0.019477449 0)
(28.186404 -0.028177388 0)
(28.531772 -0.033010164 0)
(29.191904 -0.02548931 0)
(30.454886 -0.0073043873 0)
(32.211179 0.0062757602 0)
(34.220254 0.018351847 0)
(36.214346 0.02437032 0)
(37.872921 0.02709407 0)
(38.907559 0.026251186 0)
(39.094609 0.023150364 0)
(37.943625 0.019051278 0)
(35.491237 0.01504693 0)
(32.126677 0.011225413 0)
(28.310272 0.0081188619 0)
(24.442521 0.005721655 0)
(20.758461 0.0039479972 0)
(17.385901 0.0026739025 0)
(14.386479 0.0017801215 0)
(11.770141 0.0011647818 0)
(9.5148761 0.00074700355 0)
(7.5856243 0.00046733382 0)
(5.9440444 0.00028306754 0)
(4.5528213 0.00016403959 0)
(3.3774552 8.9216202e-05 0)
(2.3869337 4.3900108e-05 0)
(1.5538763 1.8037536e-05 0)
(0.85441243 5.137532e-06 0)
(0.26792734 1.8477949e-07 0)
(27.742182 -0.0064195359 0)
(27.893985 -0.019488503 0)
(28.175677 -0.028198299 0)
(28.520002 -0.033045027 0)
(29.177362 -0.025597697 0)
(30.436407 -0.0074279988 0)
(32.189284 0.0061835042 0)
(34.196315 0.018270854 0)
(36.189241 0.024313782 0)
(37.847434 0.027050956 0)
(38.881747 0.026222171 0)
(39.067582 0.023129001 0)
(37.914838 0.019035446 0)
(35.461807 0.015032909 0)
(32.097952 0.011214554 0)
(28.283763 0.0081105066 0)
(24.418999 0.0057152824 0)
(20.738157 0.0039431984 0)
(17.368766 0.0026703403 0)
(14.372285 0.0017775202 0)
(11.758554 0.0011628608 0)
(9.5055393 0.00074559301 0)
(7.578206 0.00046626152 0)
(5.9382501 0.00028224675 0)
(4.5483955 0.00016342442 0)
(3.3741793 8.8701506e-05 0)
(2.3846223 4.3541318e-05 0)
(1.5523728 1.7871524e-05 0)
(0.85358575 5.1130306e-06 0)
(0.2676679 1.9736827e-07 0)
(27.732191 -0.0064314622 0)
(27.883744 -0.019500073 0)
(28.164951 -0.028219995 0)
(28.508241 -0.03308007 0)
(29.162838 -0.025706269 0)
(30.417943 -0.0075521312 0)
(32.167401 0.0060913279 0)
(34.172384 0.018189625 0)
(36.164142 0.024256901 0)
(37.821955 0.027007776 0)
(38.855946 0.026193876 0)
(39.040569 0.023108359 0)
(37.886066 0.019020804 0)
(35.432394 0.015020566 0)
(32.069247 0.011205703 0)
(28.257273 0.0081044598 0)
(24.395496 0.0057114014 0)
(20.717871 0.0039408751 0)
(17.351648 0.0026691613 0)
(14.358108 0.0017770796 0)
(11.746981 0.0011629271 0)
(9.4962149 0.00074593162 0)
(7.5707982 0.00046677688 0)
(5.9324643 0.00028282595 0)
(4.5439765 0.00016397313 0)
(3.3709085 8.9246458e-05 0)
(2.3823144 4.3958066e-05 0)
(1.5508717 1.8075129e-05 0)
(0.8527604 5.1362158e-06 0)
(0.26740888 1.7729568e-07 0)
(27.722197 -0.0064435234 0)
(27.873501 -0.019512045 0)
(28.154228 -0.028242274 0)
(28.496486 -0.033115247 0)
(29.14833 -0.025814735 0)
(30.399494 -0.0076768468 0)
(32.145531 0.0059984722 0)
(34.148461 0.018107454 0)
(36.13905 0.024199002 0)
(37.796484 0.026964053 0)
(38.830156 0.026165434 0)
(39.013569 0.023086997 0)
(37.85731 0.019005259 0)
(35.402999 0.015007177 0)
(32.040561 0.011195151 0)
(28.230801 0.0080963657 0)
(24.372009 0.0057052007 0)
(20.697598 0.0039361393 0)
(17.33454 0.0026655549 0)
(14.343939 0.0017743597 0)
(11.735414 0.0011608358 0)
(9.4868951 0.00074433223 0)
(7.5633939 0.00046551388 0)
(5.9266812 0.00028182356 0)
(4.5395595 0.00016320234 0)
(3.3676393 8.8600152e-05 0)
(2.3800077 4.3503213e-05 0)
(1.5493714 1.7860919e-05 0)
(0.8519355 5.1046143e-06 0)
(0.26715001 1.9375153e-07 0)
(27.7122 -0.0064557121 0)
(27.863254 -0.019524268 0)
(28.143507 -0.028265 0)
(28.48474 -0.033150542 0)
(29.133839 -0.025923067 0)
(30.381061 -0.007802215 0)
(32.123673 0.0059047374 0)
(34.124547 0.018024287 0)
(36.113964 0.024140435 0)
(37.771019 0.026919641 0)
(38.804374 0.026136223 0)
(38.98658 0.023065213 0)
(37.828566 0.018990175 0)
(35.373619 0.014994916 0)
(32.011892 0.011185898 0)
(28.204347 0.0080898132 0)
(24.348537 0.0057007123 0)
(20.67734 0.0039331773 0)
(17.317446 0.0026636899 0)
(14.329783 0.0017732439 0)
(11.723858 0.0011602287 0)
(9.4775849 0.00074405392 0)
(7.5559977 0.00046547038 0)
(5.9209048 0.00028192715 0)
(4.5351477 0.0001633714 0)
(3.3643741 8.8844983e-05 0)
(2.3777039 4.3713651e-05 0)
(1.547873 1.7959465e-05 0)
(0.85111165 5.1147383e-06 0)
(0.26689147 1.8281147e-07 0)
(27.7022 -0.0064679631 0)
(27.853003 -0.019536604 0)
(28.132788 -0.028288226 0)
(28.473001 -0.033186155 0)
(29.119365 -0.026031458 0)
(30.362643 -0.007928028 0)
(32.101828 0.0058108147 0)
(34.100641 0.017940645 0)
(36.088883 0.024081678 0)
(37.745561 0.026874712 0)
(38.778602 0.02610626 0)
(38.959602 0.02304298 0)
(37.799836 0.018974461 0)
(35.344254 0.014981755 0)
(31.98324 0.011175547 0)
(28.177908 0.0080819183 0)
(24.325078 0.0056947285 0)
(20.657093 0.0039286844 0)
(17.30036 0.002660349 0)
(14.315631 0.0017707968 0)
(11.712306 0.0011584197 0)
(9.4682761 0.00074272936 0)
(7.5486018 0.00046446532 0)
(5.915128 0.00028116052 0)
(4.5307353 0.00016279934 0)
(3.3611082 8.8370414e-05 0)
(2.3753995 4.3384226e-05 0)
(1.5463741 1.780721e-05 0)
(0.85028748 5.0935574e-06 0)
(0.26663282 1.9525177e-07 0)
(27.692197 -0.0064801965 0)
(27.842749 -0.019548926 0)
(28.122071 -0.02831195 0)
(28.46127 -0.03322226 0)
(29.104908 -0.026140144 0)
(30.344242 -0.0080542985 0)
(32.079996 0.0057170749 0)
(34.076743 0.017857185 0)
(36.063808 0.024023857 0)
(37.72011 0.026830282 0)
(38.752839 0.026076205 0)
(38.932637 0.023021184 0)
(37.771119 0.018958976 0)
(35.314907 0.014969182 0)
(31.954608 0.011166673 0)
(28.151489 0.0080760172 0)
(24.301639 0.005691097 0)
(20.636863 0.0039266317 0)
(17.283292 0.0026594155 0)
(14.301497 0.0017705683 0)
(11.700768 0.0011586768 0)
(9.4589808 0.00074323315 0)
(7.5412175 0.00046512764 0)
(5.9093608 0.00028186631 0)
(4.5263307 0.0001634514 0)
(3.3578481 8.899903e-05 0)
(2.3730992 4.3861475e-05 0)
(1.5448779 1.8043653e-05 0)
(0.84946485 5.1222054e-06 0)
(0.26637465 1.7294826e-07 0)
(27.682191 -0.0064923617 0)
(27.832491 -0.019561212 0)
(28.111357 -0.028336043 0)
(28.449547 -0.033258756 0)
(29.090468 -0.026249023 0)
(30.325855 -0.0081810248 0)
(32.058177 0.0056230955 0)
(34.052854 0.017773526 0)
(36.03874 0.023966307 0)
(37.694667 0.026785572 0)
(38.727086 0.026044687 0)
(38.905684 0.022997553 0)
(37.742418 0.018940935 0)
(35.285577 0.014953654 0)
(31.925996 0.011154879 0)
(28.125088 0.0080670547 0)
(24.278215 0.0056842812 0)
(20.616647 0.0039214297 0)
(17.266234 0.0026554197 0)
(14.28737 0.0017675299 0)
(11.689237 0.0011563237 0)
(9.4496905 0.00074142135 0)
(7.5338371 0.00046368992 0)
(5.9035967 0.00028071825 0)
(4.5219284 0.00016256381 0)
(3.3545899 8.8253977e-05 0)
(2.3708004 4.3334572e-05 0)
(1.5433827 1.7793298e-05 0)
(0.84864276 5.0840169e-06 0)
(0.26611666 1.9156031e-07 0)
(27.672182 -0.0065044538 0)
(27.82223 -0.019573562 0)
(28.100645 -0.028360458 0)
(28.437832 -0.033295292 0)
(29.076046 -0.026357708 0)
(30.307485 -0.0083082584 0)
(32.036371 0.0055282699 0)
(34.028973 0.017689207 0)
(36.013679 0.023908218 0)
(37.669231 0.026740416 0)
(38.701343 0.026012865 0)
(38.878744 0.02297339 0)
(37.713732 0.018922575 0)
(35.256265 0.014938028 0)
(31.897404 0.011143564 0)
(28.098709 0.0080591255 0)
(24.25481 0.0056788547 0)
(20.596449 0.0039178517 0)
(17.249193 0.0026531563 0)
(14.273259 0.0017661697 0)
(11.677719 0.0011555801 0)
(9.4404117 0.00074107837 0)
(7.5264663 0.00046363221 0)
(5.8978405 0.00028084209 0)
(4.5175324 0.00016276904 0)
(3.3513365 8.8553348e-05 0)
(2.368505 4.3593388e-05 0)
(1.5418899 1.7915607e-05 0)
(0.84782195 5.0987015e-06 0)
(0.26585907 1.7941829e-07 0)
(27.66217 -0.0065164867 0)
(27.811965 -0.019586063 0)
(28.089936 -0.028385274 0)
(28.426125 -0.033331746 0)
(29.06164 -0.026466362 0)
(30.289132 -0.0084360005 0)
(32.014579 0.0054332879 0)
(34.005102 0.017604577 0)
(35.988624 0.023849738 0)
(37.643803 0.026694899 0)
(38.675609 0.025980834 0)
(38.851816 0.022948466 0)
(37.68506 0.018903379 0)
(35.226972 0.014921255 0)
(31.868833 0.011130781 0)
(28.072348 0.0080494622 0)
(24.231423 0.0056715096 0)
(20.576264 0.0039123232 0)
(17.232162 0.0026490193 0)
(14.259154 0.001763115 0)
(11.666206 0.0011532995 0)
(9.431135 0.00073938135 0)
(7.5190963 0.0004623223 0)
(5.8920842 0.00027982209 0)
(4.5131358 0.00016199317 0)
(3.3480824 8.7895718e-05 0)
(2.3662089 4.3128808e-05 0)