/*--------------------------------*- C++ -*----------------------------------*\
| =========                 |                                                 |
| \\      /  F ield         | OpenFOAM: The Open Source CFD Toolbox           |
|  \\    /   O peration     | Version:  v2012                                 |
|   \\  /    A nd           | Website:  www.openfoam.com                      |
|    \\/     M anipulation  |                                                 |
\*---------------------------------------------------------------------------*/
FoamFile
{
    version     2.0;
    format      ascii;
    class       volScalarField;
    location    "300";
    object      alphat;
}
// * * * * * * * * * * * * * * * * * * * * * * * * * * * * * * * * * * * * * //

dimensions      [1 -1 -1 0 0 0 0];


internalField   nonuniform List<scalar> 
24000
(
0.00094584054
0.00025057522
0.0002685487
0.00025446006
0.00013605298
6.404607e-05
3.3895799e-05
3.1817189e-05
2.6029183e-05
1.7975836e-05
1.1811602e-05
6.5240778e-06
2.7172258e-06
1.6601834e-06
1.0502085e-06
6.5538909e-07
3.9344826e-07
2.171486e-07
9.3134107e-08
3.4413169e-08
1.1222086e-08
3.2966886e-09
8.7928851e-10
2.1094384e-10
4.4256552e-11
7.7667486e-12
1.1468705e-12
2.6212248e-13
2.0878028e-13
2.2172939e-13
0.0009459479
0.00024807115
0.00026122732
0.00024196564
0.00012838624
6.1185793e-05
3.3433161e-05
3.1584847e-05
2.5971139e-05
1.80378e-05
1.1874609e-05
6.5897133e-06
2.7349015e-06
1.667227e-06
1.0569709e-06
6.6161744e-07
3.9837596e-07
2.2011912e-07
9.4527824e-08
3.4940661e-08
1.1393795e-08
3.3472184e-09
8.9292434e-10
2.1427773e-10
4.4981629e-11
7.9128027e-12
1.1875015e-12
2.8997054e-13
2.3811299e-13
2.5275643e-13
0.00094604614
0.00024888289
0.00026575976
0.00025274096
0.00013469256
6.3642263e-05
3.4065969e-05
3.1678506e-05
2.5933848e-05
1.7999435e-05
1.1824342e-05
6.6151361e-06
2.7428069e-06
1.6732313e-06
1.0599306e-06
6.63582e-07
3.9976982e-07
2.2219474e-07
9.5709521e-08
3.5462605e-08
1.1580837e-08
3.4043366e-09
9.0831534e-10
2.1796487e-10
4.5745418e-11
8.0363375e-12
1.1940678e-12
2.7989258e-13
2.2555024e-13
2.3942572e-13
0.00094614583
0.0002493744
0.00026766369
0.00025651244
0.00013645701
6.4158595e-05
3.4103421e-05
3.1618055e-05
2.5887398e-05
1.7965518e-05
1.1790295e-05
6.6202748e-06
2.7447758e-06
1.6759253e-06
1.0610955e-06
6.6400507e-07
3.9974826e-07
2.2170297e-07
9.5345681e-08
3.5276826e-08
1.1508331e-08
3.3810072e-09
9.0182244e-10
2.1637822e-10
4.5412214e-11
7.9811188e-12
1.1899178e-12
2.8295326e-13
2.2957207e-13
2.4370549e-13
0.00094624754
0.0002501526
0.00026960623
0.00025954922
0.00013761654
6.4409524e-05
3.413429e-05
3.1592991e-05
2.5868632e-05
1.7953068e-05
1.1782448e-05
6.6220468e-06
2.7459694e-06
1.6761707e-06
1.0611251e-06
6.6408118e-07
3.9983147e-07
2.2189593e-07
9.545968e-08
3.5327658e-08
1.1526422e-08
3.3864547e-09
9.0326793e-10
2.1671984e-10
4.5482267e-11
7.9924159e-12
1.190578e-12
2.8211013e-13
2.2850704e-13
2.4257049e-13
0.00094635091
0.00025081599
0.00027089971
0.00026124326
0.00013818529
6.4554857e-05
3.4158566e-05
3.1568645e-05
2.5855181e-05
1.7942913e-05
1.1773934e-05
6.6204022e-06
2.7459873e-06
1.6763733e-06
1.0611057e-06
6.6400889e-07
3.99734e-07
2.2175844e-07
9.5374899e-08
3.5288202e-08
1.1511696e-08
3.3818088e-09
9.019856e-10
2.1640768e-10
4.5416584e-11
7.9810983e-12
1.189163e-12
2.8204188e-13
2.285542e-13
2.4262208e-13
0.00094645559
0.00025136169
0.00027178416
0.00026229728
0.00013855952
6.4682243e-05
3.4184507e-05
3.1551072e-05
2.5844567e-05
1.793465e-05
1.176761e-05
6.6172557e-06
2.7455229e-06
1.6761542e-06
1.0609347e-06
6.6386704e-07
3.996122e-07
2.216381e-07
9.5309158e-08
3.5260054e-08
1.1501725e-08
3.3787563e-09
9.0115723e-10
2.1620792e-10
4.5374667e-11
7.9737292e-12
1.1880422e-12
2.8174992e-13
2.2830701e-13
2.4235917e-13
0.00094656126
0.0002517911
0.00027237847
0.00026299758
0.00013885322
6.4806347e-05
3.4211653e-05
3.1535707e-05
2.5834203e-05
1.7926474e-05
1.1762011e-05
6.613321e-06
2.7448102e-06
1.6758455e-06
1.0607332e-06
6.6370053e-07
3.9946836e-07
2.2148911e-07
9.5226714e-08
3.522435e-08
1.1488976e-08
3.3748357e-09
9.0009071e-10
2.1595046e-10
4.5320664e-11
7.9642988e-12
1.186681e-12
2.8146605e-13
2.280912e-13
2.4212988e-13
0.00094666764
0.00025213207
0.0002727943
0.00026352322
0.00013911857
6.4931424e-05
3.4240311e-05
3.1521351e-05
2.5824118e-05
1.7918598e-05
1.1756815e-05
6.6090049e-06
2.7439879e-06
1.6754763e-06
1.0605106e-06
6.6352095e-07
3.9931603e-07
2.2133396e-07
9.5141371e-08
3.5187562e-08
1.1475885e-08
3.3708182e-09
8.9899943e-10
2.1568729e-10
4.52655e-11
7.9546621e-12
1.1852797e-12
2.811623e-13
2.2785507e-13
2.4187875e-13
0.00094677455
0.00025241005
0.00027310144
0.00026395973
0.00013937349
6.505764e-05
3.4270166e-05
3.1507453e-05
2.5814147e-05
1.7910891e-05
1.1751769e-05
6.6044904e-06
2.7431172e-06
1.6750901e-06
1.0602853e-06
6.6333899e-07
3.991613e-07
2.2117514e-07
9.5053887e-08
3.5149832e-08
1.1462456e-08
3.366698e-09
8.9788046e-10
2.1541751e-10
4.5208967e-11
7.9447918e-12
1.1838481e-12
2.8085538e-13
2.2761775e-13
2.4162626e-13
0.00094688186
0.00025264527
0.00027334323
0.00026434967
0.00013962455
6.518501e-05
3.430105e-05
3.1493835e-05
2.580422e-05
1.7903288e-05
1.1746804e-05
6.5998724e-06
2.7422307e-06
1.6747017e-06
1.0600637e-06
6.6315935e-07
3.9900769e-07
2.2101604e-07
9.4966099e-08
3.5111952e-08
1.1448975e-08
3.3625624e-09
8.9675771e-10
2.1514691e-10
4.5152285e-11
7.9348988e-12
1.1824136e-12
2.8054757e-13
2.2737949e-13
2.4137267e-13
0.00094698948
0.00025285204
0.00027354542
0.00026471429
0.00013987409
6.5313335e-05
3.4332852e-05
3.1480398e-05
2.5794303e-05
1.7895741e-05
1.1741867e-05
6.5951975e-06
2.7413445e-06
1.6743205e-06
1.0598499e-06
6.6298478e-07
3.9885705e-07
2.2085804e-07
9.4878684e-08
3.5074193e-08
1.1435533e-08
3.3584395e-09
8.9563865e-10
2.1487729e-10
4.5095822e-11
7.925047e-12
1.1809854e-12
2.8024118e-13
2.2714223e-13
2.4112004e-13
0.00094709738
0.00025303995
0.00027372295
0.00026506411
0.00014012294
6.5442441e-05
3.4365495e-05
3.1467081e-05
2.5784363e-05
1.7888226e-05
1.1736928e-05
6.5904886e-06
2.740467e-06
1.673951e-06
1.0596458e-06
6.6281667e-07
3.9871036e-07
2.2070194e-07
9.4792055e-08
3.5036724e-08
1.1422188e-08
3.3543462e-09
8.9452793e-10
2.1460977e-10
4.5039822e-11
7.9152803e-12
1.1795703e-12
2.7993763e-13
2.2690708e-13
2.4086957e-13
0.0009472055
0.00025321527
0.00027388447
0.00026540438
0.00014037135
6.5572213e-05
3.4398926e-05
3.1453845e-05
2.577438e-05
1.7880715e-05
1.1731968e-05
6.5857573e-06
2.7396026e-06
1.6735953e-06
1.0594524e-06
6.626559e-07
3.9856829e-07
2.2054833e-07
9.470651e-08
3.4999665e-08
1.1408981e-08
3.3502942e-09
8.934284e-10
2.1434497e-10
4.49844e-11
7.9056158e-12
1.1781702e-12
2.7963729e-13
2.266743e-13
2.4062153e-13
0.00094731384
0.00025338204
0.00027403522
0.00026573825
0.0001406194
6.5702563e-05
3.4433118e-05
3.1440675e-05
2.576435e-05
1.7873192e-05
1.1726972e-05
6.5810085e-06
2.738753e-06
1.6732545e-06
1.0592702e-06
6.6250276e-07
3.9843108e-07
2.2039742e-07
9.4622173e-08
3.496307e-08
1.1395929e-08
3.3462893e-09
8.9234169e-10
2.1408331e-10
4.4929648e-11
7.8960707e-12
1.1767877e-12
2.7934055e-13
2.2644413e-13
2.4037619e-13
0.00094742238
0.00025354283
0.00027417822
0.00026606741
0.00014086707
6.5833452e-05
3.4468055e-05
3.1427565e-05
2.5754274e-05
1.7865661e-05
1.172193e-05
6.5762419e-06
2.7379183e-06
1.672929e-06
1.0590993e-06
6.623573e-07
3.9829878e-07
2.2024934e-07
9.4539115e-08
3.4926972e-08
1.1383047e-08
3.3423357e-09
8.9126898e-10
2.1382505e-10
4.4875618e-11
7.8866528e-12
1.1754232e-12
2.79047e-13
2.2621607e-13
2.4013304e-13
0.00094753111
0.00025369923
0.00027431505
0.00026639248
0.00014111423
6.5964856e-05
3.4503713e-05
3.1414505e-05
2.5744147e-05
1.7858114e-05
1.1716839e-05
6.571456e-06
2.7370982e-06
1.6726186e-06
1.0589395e-06
6.6221937e-07
3.9817124e-07
2.20104e-07
9.4457292e-08
3.4891353e-08
1.1370327e-08
3.3384314e-09
8.9020983e-10
2.1357014e-10
4.4822305e-11
7.8773627e-12
1.1740769e-12
2.7875664e-13
2.2599008e-13
2.3989202e-13
0.00094764
0.00025385225
0.00027444682
0.00026671421
0.00014136097
6.6096746e-05
3.4540077e-05
3.1401512e-05
2.5733951e-05
1.7850517e-05
1.1711688e-05
6.5666488e-06
2.7362921e-06
1.6723233e-06
1.0587908e-06
6.6208896e-07
3.9804849e-07
2.1996143e-07
9.4376728e-08
3.4856222e-08
1.1357772e-08
3.3345767e-09
8.8916408e-10
2.1331846e-10
4.4769674e-11
7.8681917e-12
1.1727473e-12
2.7846897e-13
2.2576575e-13
2.3965272e-13
0.00094774906
0.00025400256
0.00027457441
0.00026703337
0.0001416075
6.6229133e-05
3.4577138e-05
3.1388586e-05
2.5723683e-05
1.7842851e-05
1.1706473e-05
6.5618183e-06
2.7354993e-06
1.6720426e-06
1.0586529e-06
6.6196593e-07
3.979304e-07
2.1982155e-07
9.4297372e-08
3.4821555e-08
1.1345373e-08
3.3307688e-09
8.8813103e-10
2.1306987e-10
4.47177e-11
7.8591367e-12
1.1714339e-12
2.7818398e-13
2.2554309e-13
2.3941514e-13
0.00094785825
0.00025415071
0.00027469841
0.00026735014
0.00014185384
6.6361976e-05
3.4614891e-05
3.1375739e-05
2.5713336e-05
1.7835115e-05
1.1701194e-05
6.5569615e-06
2.7347191e-06
1.6717766e-06
1.0585257e-06
6.6185015e-07
3.9781691e-07
2.1968434e-07
9.4219228e-08
3.4787357e-08
1.1333133e-08
3.3270083e-09
8.8711074e-10
2.1282436e-10
4.4666371e-11
7.8501938e-12
1.1701359e-12
2.7790118e-13
2.2532162e-13
2.391788e-13
0.00094796757
0.00025429726
0.00027481922
0.00026766446
0.00014209991
6.6495232e-05
3.4653322e-05
3.1362952e-05
2.5702911e-05
1.78273e-05
1.1695856e-05
6.5520755e-06
2.7339508e-06
1.6715246e-06
1.058409e-06
6.6174142e-07
3.9770786e-07
2.195497e-07
9.4142239e-08
3.4753603e-08
1.1321042e-08
3.323293e-09
8.8610275e-10
2.1258185e-10
4.4615682e-11
7.8413641e-12
1.1688535e-12
2.7762075e-13
2.2510152e-13
2.3894388e-13
0.00094807697
0.00025444243
0.0002749371
0.00026797628
0.00014234566
6.6628871e-05
3.4692423e-05
3.1350247e-05
2.5692414e-05
1.7819399e-05
1.1690449e-05
6.5471589e-06
2.7331938e-06
1.6712865e-06
1.0583027e-06
6.6163974e-07
3.9760327e-07
2.1941766e-07
9.4066429e-08
3.4720307e-08
1.1309106e-08
3.3196242e-09
8.8510734e-10
2.1234237e-10
4.4565631e-11
7.8326449e-12
1.1675861e-12
2.7734229e-13
2.2488239e-13
2.3870995e-13
0.00094818647
0.00025458614
0.00027505221
0.00026828579
0.00014259106
6.6762875e-05
3.4732185e-05
3.1337614e-05
2.5681844e-05
1.7811414e-05
1.1684971e-05
6.5422102e-06
2.7324479e-06
1.6710622e-06
1.0582066e-06
6.6154499e-07
3.9750306e-07
2.1928813e-07
9.399174e-08
3.4687441e-08
1.1297314e-08
3.3159987e-09
8.8412364e-10
2.1210575e-10
4.4516186e-11
7.8240326e-12
1.1663334e-12
2.7706596e-13
2.2466442e-13
2.3847723e-13
0.00094829601
0.00025472861
0.00027516474
0.00026859295
0.00014283612
6.6897214e-05
3.4772595e-05
3.1325059e-05
2.5671202e-05
1.7803339e-05
1.1679427e-05
6.5372288e-06
2.7317129e-06
1.6708513e-06
1.0581205e-06
6.6145709e-07
3.9740719e-07
2.1916112e-07
9.3918198e-08
3.4655017e-08
1.128567e-08
3.3124174e-09
8.8315182e-10
2.1187199e-10
4.446734e-11
7.8155242e-12
1.1650947e-12
2.7679135e-13
2.2444724e-13
2.3824533e-13
0.00094840556
0.0002548702
0.00027527488
0.00026889756
0.00014308095
6.7031893e-05
3.4813642e-05
3.1312589e-05
2.5660498e-05
1.7795177e-05
1.1673816e-05
6.5322133e-06
2.7309881e-06
1.6706537e-06
1.0580444e-06
6.6137581e-07
3.9731547e-07
2.1903654e-07
9.3845737e-08
3.4623005e-08
1.1274164e-08
3.308877e-09
8.8219102e-10
2.1164089e-10
4.4419057e-11
7.8071148e-12
1.1638694e-12
2.7651856e-13
2.2423096e-13
2.3801436e-13
0.00094851506
0.00025501089
0.0002753828
0.0002691999
0.00014332549
6.7166901e-05
3.485532e-05
3.13002e-05
2.5649735e-05
1.7786929e-05
1.1668134e-05
6.5271623e-06
2.7302732e-06
1.6704692e-06
1.0579781e-06
6.6130117e-07
3.9722794e-07
2.1891441e-07
9.3774394e-08
3.4591429e-08
1.1262804e-08
3.3053808e-09
8.8124213e-10
2.1141265e-10
4.4371373e-11
7.7988083e-12
1.1626577e-12
2.7624732e-13
2.2401529e-13
2.37784e-13
0.00094862446
0.0002551506
0.00027548861
0.00026950041
0.00014356961
6.7302182e-05
3.4897613e-05
3.1287896e-05
2.5638898e-05
1.7778587e-05
1.1662379e-05
6.5220755e-06
2.7295682e-06
1.6702979e-06
1.0579215e-06
6.6123306e-07
3.9714449e-07
2.1879463e-07
9.3704102e-08
3.4560257e-08
1.1251581e-08
3.3019256e-09
8.8030438e-10
2.1118714e-10
4.4324268e-11
7.7906042e-12
1.16146e-12
2.7597788e-13
2.2380047e-13
2.3755453e-13
0.0009487337
0.00025528936
0.00027559243
0.0002697991
0.00014381336
6.7437767e-05
3.4940516e-05
3.1275674e-05
2.5627993e-05
1.7770149e-05
1.1656552e-05
6.5169532e-06
2.7288736e-06
1.6701397e-06
1.0578747e-06
6.6117146e-07
3.9706511e-07
2.1867719e-07
9.3634873e-08
3.4529494e-08
1.1240496e-08
3.2985117e-09
8.7937779e-10
2.1096432e-10
4.4277731e-11
7.7824983e-12
1.1602751e-12
2.7570962e-13
2.2358589e-13
2.373253e-13
0.00094884271
0.00025542724
0.00027569441
0.00027009607
0.00014405691
6.7573638e-05
3.4984014e-05
3.1263552e-05
2.561702e-05
1.7761624e-05
1.1650655e-05
6.5117948e-06
2.7281889e-06
1.6699944e-06
1.0578375e-06
6.6111616e-07
3.9698961e-07
2.1856199e-07
9.3566626e-08
3.4499102e-08
1.1229533e-08
3.295134e-09
8.7846092e-10
2.1074385e-10
4.423169e-11
7.7744797e-12
1.1591019e-12
2.754427e-13
2.2337182e-13
2.3709659e-13
0.00094895142
0.00025556437
0.00027579476
0.00027039162
0.0001443002
6.7709754e-05
3.5028087e-05
3.1251509e-05
2.5605978e-05
1.7753012e-05
1.164469e-05
6.5066003e-06
2.727514e-06
1.6698622e-06
1.0578099e-06
6.6106724e-07
3.9691808e-07
2.1844908e-07
9.3499419e-08
3.4469112e-08
1.1218705e-08
3.2917963e-09
8.7755473e-10
2.1052593e-10
4.4186175e-11
7.7665506e-12
1.1579402e-12
2.7517689e-13
2.2315803e-13
2.3686815e-13
0.00094905974
0.00025570084
0.00027589362
0.00027068562
0.00014454314
6.7846137e-05
3.5072739e-05
3.123956e-05
2.5594858e-05
1.7744301e-05
1.1638656e-05
6.5013701e-06
2.7268494e-06
1.6697432e-06
1.0577919e-06
6.6102465e-07
3.9685046e-07
2.1833838e-07
9.3433193e-08
3.4439496e-08
1.1208003e-08
3.2884964e-09
8.7665875e-10
2.1031048e-10
4.4141187e-11
7.7587142e-12
1.156791e-12
2.7491253e-13
2.2294481e-13
2.3664031e-13
0.00094916759
0.00025583679
0.00027599115
0.00027097806
0.00014478567
6.798273e-05
3.5117947e-05
3.1227696e-05
2.558367e-05
1.7735499e-05
1.1632554e-05
6.4961056e-06
2.7261955e-06
1.6696375e-06
1.0577836e-06
6.6098845e-07
3.967868e-07
2.1822994e-07
9.3367974e-08
3.4410269e-08
1.1197431e-08
3.2852357e-09
8.757734e-10
2.1009761e-10
4.409674e-11
7.7509715e-12
1.1556539e-12
2.746492e-13
2.2273173e-13
2.364126e-13
0.00094927487
0.00025597232
0.0002760876
0.00027126918
0.00014502793
6.8119563e-05
3.516371e-05
3.1215923e-05
2.5572421e-05
1.7726617e-05
1.1626388e-05
6.4908062e-06
2.7255522e-06
1.669545e-06
1.0577848e-06
6.6095851e-07
3.9672695e-07
2.1812365e-07
9.33037e-08
3.4381394e-08
1.1186975e-08
3.2820093e-09
8.7489726e-10
2.0988697e-10
4.4052769e-11
7.7433123e-12
1.1545281e-12
2.7438711e-13
2.2251907e-13
2.3618533e-13
0.00094938148
0.00025610753
0.00027618309
0.00027155907
0.00014526996
6.8256612e-05
3.5210006e-05
3.1204234e-05
2.5561113e-05
1.7717647e-05
1.1620162e-05
6.485472e-06
2.72492e-06
1.669466e-06
1.0577958e-06
6.6093494e-07
3.9667102e-07
2.1801963e-07
9.3240443e-08
3.435291e-08
1.117665e-08
3.2788216e-09
8.7403141e-10
2.0967876e-10
4.4009299e-11
7.7357385e-12
1.1534131e-12
2.74126e-13
2.223066e-13
2.3595824e-13
0.00094948732
0.00025624247
0.00027627758
0.00027184786
0.00014551172
6.8393854e-05
3.5256824e-05
3.1192619e-05
2.5549755e-05
1.770859e-05
1.1613874e-05
6.4801043e-06
2.7242991e-06
1.6694005e-06
1.0578166e-06
6.6091772e-07
3.9661898e-07
2.1791778e-07
9.3178144e-08
3.4324789e-08
1.1166445e-08
3.2756696e-09
8.731751e-10
2.0947286e-10
4.3966315e-11
7.7282493e-12
1.1523095e-12
2.7386625e-13
2.2209471e-13
2.3573175e-13
0.00094959227
0.00025637715
0.00027637091
0.00027213543
0.00014575321
6.8531358e-05
3.5304167e-05
3.1181092e-05
2.5538338e-05
1.7699448e-05
1.1607524e-05
6.4747049e-06
2.7236899e-06
1.6693488e-06
1.0578472e-06
6.6090692e-07
3.965709e-07
2.1781816e-07
9.3116845e-08
3.4297053e-08
1.1156369e-08
3.2725561e-09
8.7232917e-10
2.0926945e-10
4.3923851e-11
7.7208496e-12
1.1512173e-12
2.7360737e-13
2.2188283e-13
2.3550527e-13
0.00094969622
0.00025651161
0.00027646317
0.00027242182
0.00014599452
6.8669063e-05
3.535202e-05
3.1169634e-05
2.552687e-05
1.7690225e-05
1.1601115e-05
6.4692748e-06
2.7230929e-06
1.6693107e-06
1.0578876e-06
6.6090243e-07
3.9652664e-07
2.177207e-07
9.305648e-08
3.4269665e-08
1.1146408e-08
3.2694766e-09
8.7149239e-10
2.0906826e-10
4.3881859e-11
7.713533e-12
1.1501363e-12
2.7334975e-13
2.2167141e-13
2.3527926e-13
0.00094979903
0.00025664596
0.00027655463
0.00027270755
0.00014623582
6.8807012e-05
3.5400378e-05
3.1158267e-05
2.5515343e-05
1.7680921e-05
1.1594647e-05
6.4638146e-06
2.7225082e-06
1.6692867e-06
1.057938e-06
6.6090443e-07
3.9648634e-07
2.1762548e-07
9.2997124e-08
3.4242666e-08
1.1136577e-08
3.2664356e-09
8.7066588e-10
2.0886952e-10
4.3840374e-11
7.7063025e-12
1.1490662e-12
2.7309305e-13
2.214601e-13
2.3505335e-13
0.00094990058
0.00025678025
0.00027664541
0.00027299257
0.00014647712
6.8945232e-05
3.5449222e-05
3.1146958e-05
2.5503758e-05
1.7671535e-05
1.1588115e-05
6.4583246e-06
2.721936e-06
1.6692768e-06
1.0579985e-06
6.609129e-07
3.9644996e-07
2.1753243e-07
9.2938704e-08
3.4216016e-08
1.1126861e-08
3.2634287e-09
8.6984848e-10
2.0867298e-10
4.3799352e-11
7.6991533e-12
1.1480071e-12
2.7283763e-13
2.2124931e-13
2.3482798e-13
0.00095000074
0.00025691446
0.00027673557
0.00027327683
0.00014671828
6.9083625e-05
3.5498552e-05
3.1135724e-05
2.5492101e-05
1.766206e-05
1.1581521e-05
6.452807e-06
2.7213772e-06
1.6692813e-06
1.0580691e-06
6.6092802e-07
3.9641766e-07
2.1744166e-07
9.2881296e-08
3.418975e-08
1.1117273e-08
3.2604596e-09
8.6904115e-10
2.0847884e-10
4.3758826e-11
7.6920888e-12
1.1469588e-12
2.7258312e-13
2.2103865e-13
2.3460275e-13
0.00095009938
0.00025704848
0.00027682526
0.00027356053
0.00014695933
6.9222238e-05
3.5548353e-05
3.1124568e-05
2.5480384e-05
1.7652506e-05
1.157487e-05
6.4472638e-06
2.7208323e-06
1.6693e-06
1.0581498e-06
6.6094964e-07
3.9638934e-07
2.1735315e-07
9.2824871e-08
3.416385e-08
1.1107803e-08
3.2575254e-09
8.6824315e-10
2.0828693e-10
4.3718772e-11
7.6851067e-12
1.1459216e-12
2.7233005e-13
2.2082866e-13
2.3437821e-13
0.00095019635
0.0002571823
0.00027691463
0.00027384389
0.00014720047
6.9361145e-05
3.5598632e-05
3.1113468e-05
2.54686e-05
1.7642879e-05
1.1568162e-05
6.4416957e-06
2.7203013e-06
1.6693333e-06
1.0582407e-06
6.609779e-07
3.9636509e-07
2.1726699e-07
9.2769509e-08
3.4138362e-08
1.1098473e-08
3.2546324e-09
8.6745616e-10
2.0809765e-10
4.367926e-11
7.6782168e-12
1.1448961e-12
2.7207794e-13
2.2061878e-13
2.3415376e-13
0.00095029149
0.00025731622
0.00027700377
0.00027412691
0.00014744171
6.9500261e-05
3.5649379e-05
3.1102444e-05
2.5456751e-05
1.7633167e-05
1.1561392e-05
6.4361032e-06
2.7197843e-06
1.6693814e-06
1.0583419e-06
6.6101273e-07
3.963448e-07
2.1718301e-07
9.2715093e-08
3.4113228e-08
1.1089259e-08
3.2517742e-09
8.6667852e-10
2.0791063e-10
4.3640227e-11
7.6714111e-12
1.143882e-12
2.7182711e-13
2.2040936e-13
2.339298e-13
0.00095038465
0.00025745046
0.00027709277
0.00027440928
0.00014768293
6.9639595e-05
3.5700575e-05
3.1091464e-05
2.5444852e-05
1.7623371e-05
1.1554556e-05
6.4304888e-06
2.719282e-06
1.6694445e-06
1.0584535e-06
6.6105427e-07
3.9632858e-07
2.1710129e-07
9.2661678e-08
3.4088474e-08
1.1080171e-08
3.2489533e-09
8.6591084e-10
2.0772599e-10
4.3601691e-11
7.6646904e-12
1.1428786e-12
2.715771e-13
2.2019996e-13
2.3370585e-13
0.00095047566
0.0002575849
0.00027718185
0.00027469153
0.00014792431
6.9779303e-05
3.5752242e-05
3.1080548e-05
2.5432901e-05
1.7613498e-05
1.1547654e-05
6.424853e-06
2.7187949e-06
1.6695223e-06
1.0585754e-06
6.6110243e-07
3.9631637e-07
2.1702182e-07
9.2609228e-08
3.4064076e-08
1.1071199e-08
3.2461661e-09
8.6515209e-10
2.075435e-10
4.3563604e-11
7.6580481e-12
1.1418858e-12
2.7132841e-13
2.1999115e-13
2.3348252e-13
0.00095056438
0.00025771951
0.00027727108
0.00027497371
0.00014816599
6.99193e-05
3.5804354e-05
3.1069676e-05
2.54209e-05
1.760355e-05
1.1540691e-05
6.4191958e-06
2.7183229e-06
1.6696153e-06
1.0587077e-06
6.6115736e-07
3.9630829e-07
2.169447e-07
9.2557833e-08
3.4040084e-08
1.1062363e-08
3.2434191e-09
8.6440399e-10
2.0736351e-10
4.3526032e-11
7.6514924e-12
1.1409038e-12
2.7108049e-13
2.197823e-13
2.3325912e-13
0.00095065061
0.00025785461
0.0002773604
0.0002752553
0.00014840779
7.0059445e-05
3.5856908e-05
3.1058857e-05
2.5408851e-05
1.7593522e-05
1.1533662e-05
6.4135176e-06
2.7178663e-06
1.6697235e-06
1.0588506e-06
6.6121903e-07
3.9630426e-07
2.168698e-07
9.2507401e-08
3.4016451e-08
1.1053645e-08
3.2407071e-09
8.636653e-10
2.071858e-10
4.348894e-11
7.6450205e-12
1.139933e-12
2.7083387e-13
2.1957398e-13
2.3303627e-13
0.0009507342
0.00025799039
0.00027744977
0.00027553625
0.00014864959
7.0199835e-05
3.5909895e-05
3.1048094e-05
2.5396745e-05
1.7583415e-05
1.152657e-05
6.4078192e-06
2.7174256e-06
1.6698469e-06
1.0590042e-06
6.612876e-07
3.9630444e-07
2.1679724e-07
9.2458e-08
3.3993209e-08
1.1045057e-08
3.2380339e-09
8.6293699e-10
2.0701058e-10
4.3452369e-11
7.6386382e-12
1.1389737e-12
2.7058815e-13
2.193657e-13
2.3281348e-13
0.00095081498
0.00025812671
0.00027753933
0.00027581707
0.00014889158
7.0340626e-05
3.5963331e-05
3.1037353e-05
2.5384582e-05
1.7573231e-05
1.1519422e-05
6.4021012e-06
2.7170011e-06
1.6699855e-06
1.0591682e-06
6.6136289e-07
3.9630871e-07
2.1672697e-07
9.2409581e-08
3.3970328e-08
1.1036585e-08
3.2353947e-09
8.6221775e-10
2.0683754e-10
4.3416257e-11
7.6323364e-12
1.1380253e-12
2.7034378e-13
2.1915802e-13
2.325913e-13
0.00095089276
0.0002582635
0.00027762929
0.00027609822
0.00014913398
7.048177e-05
3.6017227e-05
3.1026678e-05
2.5372352e-05
1.7562972e-05
1.1512222e-05
6.3963622e-06
2.7165927e-06
1.6701396e-06
1.0593429e-06
6.614451e-07
3.963172e-07
2.1665911e-07
9.2362246e-08
3.3947864e-08
1.1028253e-08
3.2327965e-09
8.6150937e-10
2.0666707e-10
4.338067e-11
7.6261231e-12
1.1370879e-12
2.7010032e-13
2.1895043e-13
2.323692e-13
0.00095096736
0.00025840077
0.00027771967
0.00027637945
0.00014937654
7.0623089e-05
3.6071541e-05
3.1016042e-05
2.5360063e-05
1.7552642e-05
1.150497e-05
6.3906011e-06
2.7162004e-06
1.6703094e-06
1.0595284e-06
6.6153413e-07
3.9632982e-07
2.1659352e-07
9.2315892e-08
3.3925766e-08
1.1020041e-08
3.2302338e-09
8.6081045e-10
2.0649886e-10
4.3345558e-11
7.6199924e-12
1.1361617e-12
2.6985819e-13
2.187434e-13
2.3214766e-13
0.00095103862
0.00025853852
0.00027781042
0.00027666084
0.00014961924
7.0764707e-05
3.6126297e-05
3.1005459e-05
2.5347691e-05
1.7542228e-05
1.1497664e-05
6.3848188e-06
2.715825e-06
1.6704949e-06
1.0597246e-06
6.616301e-07
3.9634667e-07
2.165303e-07
9.2270583e-08
3.3904066e-08
1.1011962e-08
3.2277104e-09
8.6012205e-10
2.0633317e-10
4.3310967e-11
7.6139506e-12
1.1352467e-12
2.6961686e-13
2.1853633e-13
2.319261e-13
0.00095110635
0.00025867675
0.00027790149
0.00027694258
0.00014986237
7.0906737e-05
3.6181478e-05
3.0994915e-05
2.5335238e-05
1.7531735e-05
1.1490311e-05
6.3790161e-06
2.7154667e-06
1.6706959e-06
1.0599314e-06
6.6173286e-07
3.9636764e-07
2.1646937e-07
9.2226265e-08
3.3882731e-08
1.1004001e-08
3.225222e-09
8.5944298e-10
2.0616972e-10
4.3276853e-11
7.6079923e-12
1.1343429e-12
2.6937688e-13
2.1832983e-13
2.3170512e-13
0.00095117037
0.00025881545
0.00027799288
0.0002772249
0.00015010615
7.1049175e-05
3.6237094e-05
3.0984384e-05
2.5322732e-05
1.7521177e-05
1.1482918e-05
6.3731931e-06
2.7151257e-06
1.670913e-06
1.060149e-06
6.6184257e-07
3.9639285e-07
2.1641087e-07
9.2183036e-08
3.3861815e-08
1.0996181e-08
3.2227751e-09
8.5877497e-10
2.060089e-10
4.3243281e-11
7.6021259e-12
1.1334507e-12
2.6913779e-13
2.1812335e-13
2.3148414e-13
0.00095123049
0.00025895463
0.00027808451
0.00027750769
0.0001503504
7.1191963e-05
3.6293154e-05
3.0973906e-05
2.5310169e-05
1.7510545e-05
1.1475486e-05
6.3673491e-06
2.7148018e-06
1.671146e-06
1.0603774e-06
6.6195915e-07
3.964222e-07
2.1635462e-07
9.2140775e-08
3.384126e-08
1.0988478e-08
3.2203631e-09
8.5811629e-10
2.0585033e-10
4.3210183e-11
7.5963425e-12
1.1325696e-12
2.6889995e-13
2.1791735e-13
2.3126365e-13
0.00095128653
0.00025909429
0.00027817634
0.00027779061
0.00015059498
7.1335054e-05
3.6349639e-05
3.0963444e-05
2.5297552e-05
1.7499837e-05
1.1468019e-05
6.361485e-06
2.7144957e-06
1.6713951e-06
1.0606167e-06
6.6208275e-07
3.9645584e-07
2.1630073e-07
9.2099552e-08
3.3821096e-08
1.0980906e-08
3.2179895e-09
8.5746787e-10
2.0569421e-10
4.3177594e-11
7.5906458e-12
1.1316995e-12
2.6866293e-13
2.1771134e-13
2.3104316e-13
0.00095133833
0.00025923431
0.00027826843
0.00027807383
0.00015084005
7.147856e-05
3.6406576e-05
3.0953029e-05
2.5284873e-05
1.7489056e-05
1.1460514e-05
6.355601e-06
2.7142077e-06
1.6716601e-06
1.0608667e-06
6.6221322e-07
3.9649365e-07
2.1624919e-07
9.2059339e-08
3.3801304e-08
1.0973454e-08
3.215651e-09
8.5682871e-10
2.055403e-10
4.3145469e-11
7.5850298e-12
1.1308403e-12
2.6842733e-13
2.1750601e-13
2.3082338e-13
0.00095138572
0.00025937451
0.00027836076
0.00027835747
0.00015108566
7.1622441e-05
3.6463932e-05
3.0942644e-05
2.5272137e-05
1.7478207e-05
1.1452977e-05
6.3496976e-06
2.7139378e-06
1.6719411e-06
1.0611276e-06
6.6235073e-07
3.9653579e-07
2.1620014e-07
9.2020252e-08
3.3781947e-08
1.0966147e-08
3.2133557e-09
8.5620107e-10
2.0538913e-10
4.3113906e-11
7.5795089e-12
1.129993e-12
2.6819273e-13
2.1730081e-13
2.306037e-13
0.00095142849
0.00025951489
0.00027845333
0.00027864145
0.00015133167
7.1766784e-05
3.6521727e-05
3.093227e-05
2.5259345e-05
1.7467287e-05
1.1445401e-05
6.3437756e-06
2.7136861e-06
1.6722385e-06
1.0613994e-06
6.6249515e-07
3.9658209e-07
2.1615337e-07
9.1982157e-08
3.3762961e-08
1.0958963e-08
3.2110967e-09
8.5558322e-10
2.0524033e-10
4.3082844e-11
7.5740758e-12
1.1291575e-12
2.6795944e-13
2.1709608e-13
2.3038453e-13
0.00095146647
0.00025965559
0.00027854616
0.00027892576
0.00015157822
7.191158e-05
3.6579964e-05
3.0921937e-05
2.5246479e-05
1.7456288e-05
1.1437779e-05
6.3378357e-06
2.713453e-06
1.6725524e-06
1.0616822e-06
6.626466e-07
3.9663265e-07
2.1610897e-07
9.1945101e-08
3.374437e-08
1.0951911e-08
3.208877e-09
8.549759e-10
2.0509405e-10
4.305231e-11
7.5687335e-12
1.1283337e-12
2.6772703e-13
2.1689137e-13
2.3016536e-13
0.00095149947
0.00025979663
0.00027863925
0.00027921057
0.00015182548
7.2056758e-05
3.6638623e-05
3.0911611e-05
2.5233547e-05
1.7445216e-05
1.1430116e-05
6.3318801e-06
2.713239e-06
1.6728824e-06
1.0619757e-06
6.6280489e-07
3.9668735e-07
2.1606685e-07
9.1909028e-08
3.3726141e-08
1.0944976e-08
3.2066914e-09
8.5437766e-10
2.0494996e-10
4.3022235e-11
7.5634714e-12
1.1275205e-12
2.6749588e-13
2.1668716e-13
2.2994671e-13
0.00095152731
0.00025993793
0.00027873256
0.00027949589
0.00015207328
7.2202431e-05
3.6697759e-05
3.0901347e-05
2.5220525e-05
1.743407e-05
1.1422416e-05
6.3259082e-06
2.7130441e-06
1.6732289e-06
1.0622802e-06
6.629702e-07
3.9674632e-07
2.1602717e-07
9.1874042e-08
3.3708329e-08
1.093818e-08
3.204547e-09
8.5379034e-10
2.0480844e-10
4.2992691e-11
7.5582988e-12
1.1267186e-12
2.6726553e-13
2.1648292e-13
2.2972802e-13
0.00095154979
0.00026007942
0.00027882609
0.00027978162
0.00015232156
7.2348509e-05
3.6757322e-05
3.0891124e-05
2.5207405e-05
1.7422848e-05
1.1414679e-05
6.3199206e-06
2.7128684e-06
1.6735921e-06
1.0625957e-06
6.6314245e-07
3.9680945e-07
2.1598976e-07
9.1840036e-08
3.369088e-08
1.0931503e-08
3.2024378e-09
8.5321241e-10
2.0466918e-10
4.2963621e-11
7.5532087e-12
1.1259276e-12
2.6703647e-13
2.162792e-13
2.2950987e-13
0.00095156673
0.00026022111
0.00027891997
0.00028006798
0.00015257046
7.2495023e-05
3.6817317e-05
3.088092e-05
2.5194202e-05
1.7411546e-05
1.1406904e-05
6.3139203e-06
2.7127126e-06
1.673972e-06
1.0629222e-06
6.6332176e-07
3.9687688e-07
2.1595472e-07
9.1807079e-08
3.367383e-08
1.0924959e-08
3.2003681e-09
8.5264509e-10
2.0453247e-10
4.2935082e-11
7.5482095e-12
1.1251483e-12
2.6680833e-13
2.1607555e-13
2.292918e-13
0.00095157796
0.00026036322
0.00027901425
0.00028035474
0.00015281988
7.2642027e-05
3.6877769e-05
3.0870764e-05
2.5180939e-05
1.740017e-05
1.1399089e-05
6.3079087e-06
2.7125768e-06
1.6743683e-06
1.0632595e-06
6.6350793e-07
3.9694845e-07
2.1592198e-07
9.1775109e-08
3.3657145e-08
1.0918534e-08
3.1983331e-09
8.5208706e-10
2.04398e-10
4.2907017e-11
7.5432938e-12
1.1243802e-12
2.6658163e-13
2.1587256e-13
2.2907439e-13
0.00095158329
0.00026050594
0.00027910885
0.0002806415
0.00015306974
7.2789533e-05
3.6938667e-05
3.0860613e-05
2.5167614e-05
1.7388729e-05
1.1391236e-05
6.3018869e-06
2.7124611e-06
1.6747813e-06
1.0636078e-06
6.6370118e-07
3.9702431e-07
2.1589169e-07
9.1744234e-08
3.3640882e-08
1.091225e-08
3.1963404e-09
8.5154028e-10
2.0426621e-10
4.2879506e-11
7.5384717e-12
1.1236239e-12
2.6635577e-13
2.1566952e-13
2.2885693e-13
0.00095158254
0.00026064918
0.00027920379
0.00028092858
0.00015332026
7.2937571e-05
3.700004e-05
3.0850511e-05
2.5154216e-05
1.7377205e-05
1.138334e-05
6.2958541e-06
2.7123653e-06
1.6752112e-06
1.0639672e-06
6.6390141e-07
3.9710434e-07
2.1586362e-07
9.1714313e-08
3.3624973e-08
1.0906082e-08
3.1943817e-09
8.5100262e-10
2.0413662e-10
4.2852457e-11
7.5337305e-12
1.1228784e-12
2.6613109e-13
2.1546688e-13
2.2863987e-13
0.00095157554
0.00026079276
0.00027929893
0.00028121616
0.00015357138
7.3085961e-05
3.7061833e-05
3.0840435e-05
2.5140751e-05
1.7365603e-05
1.1375403e-05
6.2898115e-06
2.7122901e-06
1.6756579e-06
1.0643378e-06
6.6410881e-07
3.9718875e-07
2.1583795e-07
9.168544e-08
3.3609459e-08
1.0900045e-08
3.1924619e-09
8.5047535e-10
2.0400951e-10
4.2825924e-11
7.5290775e-12
1.1221442e-12
2.6590734e-13
2.1526437e-13
2.2842297e-13
0.00095156211
0.00026093684
0.00027939403
0.00028150373
0.00015382292
7.3234788e-05
3.7124084e-05
3.0830383e-05
2.5127226e-05
1.7353931e-05
1.136743e-05
6.2837607e-06
2.712236e-06
1.6761212e-06
1.0647193e-06
6.6432321e-07
3.9727741e-07
2.1581464e-07
9.1657585e-08
3.3594318e-08
1.0894129e-08
3.1905774e-09
8.4995746e-10
2.0388465e-10
4.2799861e-11
7.5245063e-12
1.121421e-12
2.6568507e-13
2.150626e-13
2.2820682e-13
0.00095154208
0.0002610816
0.00027948904
0.00028179097
0.0001540751
7.3384127e-05
3.7186811e-05
3.0820389e-05
2.5113634e-05
1.734219e-05
1.1359424e-05
6.2777013e-06
2.7122026e-06
1.6766015e-06
1.0651118e-06
6.6454473e-07
3.9737043e-07
2.1579382e-07
9.1630852e-08
3.3579613e-08
1.088836e-08
3.1887364e-09
8.494512e-10
2.0376255e-10
4.277437e-11
7.5200321e-12
1.1207101e-12
2.6546381e-13