/*--------------------------------*- C++ -*----------------------------------*\
| =========                 |                                                 |
| \\      /  F ield         | OpenFOAM: The Open Source CFD Toolbox           |
|  \\    /   O peration     | Version:  v2012                                 |
|   \\  /    A nd           | Website:  www.openfoam.com                      |
|    \\/     M anipulation  |                                                 |
\*---------------------------------------------------------------------------*/
FoamFile
{
    version     2.0;
    format      ascii;
    class       volScalarField;
    location    "300";
    object      k;
}
// * * * * * * * * * * * * * * * * * * * * * * * * * * * * * * * * * * * * * //

dimensions      [0 2 -2 0 0 0 0];


internalField   nonuniform List<scalar> 
24000
(
0.093504319
0.10217817
0.10203447
0.10289545
0.11105195
0.13319768
0.20086361
0.45062995
0.90610308
1.1227031
0.87481003
0.45322934
0.38485339
0.6127502
0.70756039
0.65323275
0.51019644
0.34428269
0.20084872
0.10599861
0.052199579
0.024357131
0.010784675
0.0044867449
0.0017192135
0.00059144448
0.0001903559
0.00011260998
0.00031476249
0.0022718155
0.093508203
0.1021782
0.10202337
0.1028576
0.11096206
0.13296627
0.19976049
0.4460818
0.89977394
1.1194318
0.87522113
0.45260794
0.38138931
0.60943212
0.70621892
0.65398557
0.51217846
0.34639814
0.20246023
0.1070181
0.052773174
0.024651377
0.010923519
0.0045471419
0.0017435584
0.00060127447
0.00019667697
0.00012430097
0.00035815756
0.0025847363
0.093511438
0.10217339
0.10200885
0.10282834
0.1108948
0.13279409
0.19916997
0.44430568
0.89790509
1.118974
0.87591468
0.45278294
0.38040559
0.60838362
0.70605401
0.65494808
0.51405591
0.34884088
0.20447699
0.10831883
0.053491675
0.025009862
0.011088864
0.0046176379
0.0017707014
0.00060992524
0.00019754859
0.00011986022
0.00033895459
0.0024456799
0.093514481
0.10216925
0.10199717
0.10280388
0.11084057
0.1326629
0.19874272
0.4428735
0.89589892
1.1174518
0.87523868
0.4524224
0.38005756
0.60774089
0.70540878
0.65438713
0.51343092
0.34805455
0.20376328
0.10781726
0.053197068
0.024856776
0.011016441
0.0045862829
0.0017584926
0.00060593171
0.00019691801
0.00012120162
0.00034507326
0.0024901319
0.093517436
0.10216573
0.10198725
0.10278158
0.11079024
0.13254099
0.19834777
0.44150863
0.89379519
1.1154896
0.87407901
0.45215184
0.37983161
0.60712947
0.7048186
0.65399732
0.51327314
0.34809068
0.20386121
0.10790098
0.053249253
0.024884444
0.011029612
0.0045919868
0.0017607023
0.00060663432
0.00019698037
0.0001208131
0.00034339834
0.0024779554
0.093520293
0.102163
0.10197892
0.1027611
0.11074297
0.13242458
0.19797171
0.44018515
0.89167144
1.1134666
0.8727955
0.45168553
0.37958858
0.60669037
0.70429762
0.65348619
0.51282399
0.34772727
0.20361725
0.10775862
0.053174432
0.024848123
0.011013157
0.0045850572
0.0017580378
0.00060573264
0.00019673223
0.00012077514
0.00034344376
0.0024783126
0.093523104
0.10216096
0.10197174
0.10274182
0.11069737
0.13231095
0.19760509
0.43887759
0.88952889
1.1114515
0.87144018
0.45113704
0.37933823
0.60631415
0.70380786
0.65297267
0.5123712
0.34738144
0.20340285
0.1076429
0.053117384
0.024821725
0.011001596
0.0045802961
0.0017562281
0.00060511181
0.00019652734
0.00012063836
0.00034303924
0.0024753882
0.093525906
0.10215949
0.10196543
0.10272341
0.11065298
0.13219943
0.19724472
0.43758049
0.88738399
1.1094355
0.87004544
0.45054286
0.37908477
0.60597641
0.70334109
0.65245459
0.51189295
0.34699988
0.20315783
0.10750692
0.053048933
0.024789571
0.010987368
0.0045743987
0.0017539793
0.00060434349
0.00019628542
0.00012050663
0.00034268613
0.0024728408
0.093528731
0.10215849
0.1019598
0.10270571
0.11060957
0.13208969
0.19688902
0.43629031
0.88523501
1.1074119
0.86862799
0.44992597
0.37883096
0.60565987
0.70288881
0.65193879
0.51140912
0.34661053
0.20290691
0.10736757
0.052978818
0.024756669
0.010972825
0.0045683762
0.0017516844
0.00060355919
0.00019603674
0.00012036633
0.00034230237
0.0024700691
0.093531603
0.10215786
0.10195471
0.10268863
0.11056708
0.13198164
0.19653729
0.43500534
0.88308069
1.1053796
0.86719619
0.44929634
0.37857777
0.60535662
0.70244685
0.65142636
0.51092319
0.34621642
0.20265171
0.10722542
0.052907177
0.024723018
0.010957943
0.0045622122
0.0017493356
0.00060275677
0.00019578293
0.00012022459
0.00034191655
0.0024672816
0.093534536
0.10215757
0.10195011
0.10267211
0.11052546
0.1318752
0.19618915
0.43372463
0.88092045
1.1033378
0.86575387
0.44865924
0.37832565
0.6050621
0.70201277
0.65091832
0.51043853
0.34582176
0.2023956
0.10708264
0.052835189
0.024689203
0.010942992
0.0045560208
0.0017469771
0.00060195125
0.00019552818
0.00012008219
0.00034152854
0.0024644773
0.093537541
0.10215756
0.10194594
0.10265615
0.11048469
0.13177034
0.19584441
0.43244773
0.87875414
1.101286
0.86430294
0.44801726
0.37807479
0.60477387
0.70158525
0.6504151
0.50995664
0.34542827
0.20213991
0.10694
0.052763266
0.024655423
0.010928058
0.0045498384
0.0017446226
0.00060114732
0.00019527399
0.00011994008
0.00034114116
0.0024616767
0.093540627
0.1021578
0.10194218
0.10264072
0.11044477
0.13166704
0.19550298
0.43117446
0.87658178
1.0992242
0.86284412
0.44737171
0.37782526
0.60449056
0.70116354
0.64991699
0.50947843
0.34503701
0.20188543
0.10679798
0.052691655
0.024621795
0.010913196
0.0045436878
0.0017422811
0.00060034813
0.00019502139
0.00011979886
0.00034075599
0.0024588911
0.093543797
0.10215829
0.10193881
0.10262581
0.11040568
0.13156529
0.1951648
0.42990475
0.87440349
1.0971522
0.8613776
0.44672324
0.37757709
0.60421133
0.70074717
0.64942415
0.50900453
0.34464875
0.20163275
0.10665695
0.052620541
0.024588403
0.010898441
0.0045375822
0.0017399571
0.00059955505
0.00019477075
0.00011965868
0.00034037345
0.0024561238
0.093547056
0.102159
0.10193581
0.10261141
0.11036741
0.13146507
0.19482986
0.42863862
0.87221946
1.09507
0.85990341
0.44607216
0.37733026
0.60393572
0.70033588
0.64893667
0.50853521
0.34426381
0.20138214
0.10651706
0.052550008
0.02455529
0.010883812
0.0045315303
0.0017376541
0.00059876934
0.00019452247
0.00011951971
0.00033999389
0.0024533773
0.093550406
0.10215993
0.10193318
0.10259751
0.11032995
0.13136636
0.19449812
0.42737612
0.87002985
1.0929777
0.85842151
0.4454185
0.37708476
0.60366353
0.69992957
0.64845455
0.50807062
0.34388242
0.20113376
0.10637843
0.052480125
0.02452249
0.010869324
0.0045255386
0.0017353745
0.00059799172
0.00019427667
0.0001193818
0.00033961665
0.0024506468
0.093553848
0.10216107
0.10193091
0.1025841
0.1102933
0.13126916
0.19416959
0.42611732
0.86783486
1.0908754
0.85693177
0.44476219
0.37684056
0.60339469
0.69952817
0.64797779
0.50761073
0.34350452
0.20088758
0.10624102
0.052410868
0.024489994
0.010854976
0.0045196063
0.0017331183
0.00059722231
0.0001940334
0.00011924495
0.00033924168
0.0024479321
0.093557383
0.10216241
0.10192898
0.10257118
0.11025743
0.13117343
0.19384424
0.42486234
0.86563477
1.088763
0.85543391
0.44410318
0.37659762
0.6031291
0.6991316
0.64750635
0.50715559
0.34313021
0.20064368
0.10610488
0.05234226
0.024457807
0.010840766
0.0045137325
0.0017308846
0.00059646062
0.00019379246
0.000119109
0.00033886847
0.0024452296
0.093561014
0.10216396
0.1019274
0.10255874
0.11022234
0.13107917
0.19352207
0.42361127
0.86342992
1.0866405
0.85392764
0.44344139
0.37635593
0.60286672
0.69873982
0.64704018
0.50670512
0.3427594
0.20040197
0.10596996
0.052274268
0.024425912
0.010826689
0.0045079143
0.0017286726
0.00059570643
0.0001935538
0.00011897394
0.00033849704
0.0024425395
0.09356474
0.10216571
0.10192615
0.10254677
0.11018801
0.13098635
0.19320304
0.42236421
0.8612206
1.0845078
0.85241282
0.44277669
0.37611548
0.60260756
0.69835282
0.64657925
0.50625932
0.34239211
0.20016249
0.10583627
0.052206906
0.024394318
0.010812745
0.004502152
0.0017264821
0.00059495957
0.00019331728
0.00011883959
0.00033812675
0.0024398573
0.093568563
0.10216765
0.10192523
0.10253526
0.11015443
0.13089496
0.19288716
0.42112126
0.85900697
1.082365
0.8508894
0.44210897
0.37587625
0.60235165
0.69797057
0.64612351
0.5058181
0.34202824
0.19992515
0.10570377
0.052140142
0.024363008
0.01079893
0.0044964445
0.0017243129
0.00059422013
0.00019308299
0.00011870602
0.00033775787
0.0024371848
0.093572482
0.10216978
0.10192463
0.10252421
0.11012159
0.13080497
0.19257438
0.41988247
0.85678924
1.0802119
0.84935726
0.44143817
0.37563824
0.60209895
0.69759304
0.64567292
0.50538145
0.34166783
0.19969
0.10557249
0.052074004
0.024331997
0.010785249
0.0044907931
0.0017221653
0.00059348801
0.00019285082
0.00011857308
0.00033738986
0.0024345182
0.0935765
0.1021721
0.10192435
0.1025136
0.11008947
0.13071636
0.19226467
0.41864794
0.85456761
1.0780488
0.84781621
0.44076422
0.37540146
0.60184949
0.69722021
0.64522743
0.50494929
0.34131076
0.19945694
0.10544235
0.052008445
0.024301261
0.010771692
0.004485194
0.0017200379
0.00059276292
0.00019262075
0.00011844084
0.000337023
0.0024318597
0.093580617
0.1021746
0.10192438
0.10250342
0.11005807
0.1306291
0.19195801
0.41741768
0.85234229
1.0758758
0.84626619
0.44008713
0.37516594
0.60160328
0.69685207
0.64478703
0.50452163
0.34095708
0.199226
0.1053134
0.051943484
0.024270808
0.01075826
0.0044796475
0.0017179308
0.0005920447
0.00019239264
0.00011830914
0.00033665676
0.0024292054
0.093584834
0.10217728
0.10192472
0.10249368
0.11002735
0.13054317
0.19165436
0.4161918
0.85011348
1.0736927
0.84470729
0.43940683
0.37493168
0.60136039
0.69648864
0.64435167
0.50409839
0.34060668
0.1989971
0.10518555
0.051879076
0.024240616
0.010744946
0.0044741499
0.0017158426
0.00059133298
0.00019216645
0.00011817802
0.00033629132
0.0024265564
0.093589152
0.10218015
0.10192535
0.10248435
0.10999732
0.13045855
0.19135368
0.4149703
0.84788135
1.0715
0.84313951
0.43872327
0.37469871
0.60112084
0.69612989
0.64392131
0.50367954
0.34025959
0.1987703
0.10505888
0.051815269
0.02421071
0.010731759
0.0044687056
0.0017137748
0.00059062814
0.0001919422
0.00011804738
0.00033592629
0.0024239101
0.09359357
0.10218318
0.10192629
0.10247543
0.10996795
0.1303752
0.19105592
0.41375326
0.84564607
1.0692976
0.84156277
0.43803645
0.37446705
0.60088465
0.69577582
0.64349588
0.50326497
0.33991568
0.19854548
0.1049333
0.051752013
0.024181067
0.01071869
0.0044633117
0.0017117266
0.0005899301
0.00019171995
0.00011791733
0.000335562
0.0024212689
0.093598088
0.10218639
0.1019275
0.10246691
0.10993923
0.13029309
0.19076105
0.4125407
0.8434078
1.0670855
0.83997707
0.43734643
0.37423676
0.60065183
0.69542641
0.64307537
0.50285468
0.33957496
0.19832266
0.10480883
0.051689317
0.024151689
0.010705742
0.0044579679
0.0017096977
0.00058923863
0.00019149953
0.0001177876
0.0003351976
0.0024186267
0.093602708
0.10218977
0.101929
0.10245878
0.10991114
0.1302122
0.19046901
0.41133267
0.8411667
1.0648641
0.83838248
0.43665319
0.37400787
0.60042248
0.69508172
0.64265975
0.50244858
0.33923729
0.1981017
0.10468535
0.051627117
0.024122544
0.010692896
0.0044526672
0.0017076854
0.00058855288
0.00019128076
0.00011765827
0.00033483345
0.0024159862
0.093607428
0.10219332
0.10193077
0.10245103
0.10988367
0.1301325
0.19017974
0.41012916
0.83892291
1.0626333
0.83677913
0.43595674
0.3737804
0.6001966
0.6947417
0.642249
0.50204668
0.33890275
0.19788271
0.10456297
0.051565468
0.024093658
0.010680164
0.0044474137
0.0017056911
0.0005878731
0.00019106364
0.00011752926
0.00033446928
0.0024133452
0.093612249
0.10219703
0.1019328
0.10244365
0.1098568
0.13005397
0.18989321
0.40893021
0.83667662
1.0603933
0.83516704
0.43525716
0.37355442
0.59997424
0.69440638
0.64184307
0.50164889
0.33857122
0.19766557
0.10444159
0.051504329
0.024065013
0.010667542
0.0044422063
0.0017037146
0.00058719946
0.00019084828
0.0001174007
0.00033410551
0.0024107068
0.09361717
0.1022009
0.10193509
0.10243664
0.10983052
0.12997656
0.18960936
0.40773581
0.83442794
1.0581443
0.83354622
0.43455454
0.37332998
0.59975542
0.69407577
0.64144199
0.50125525
0.33824274
0.19745033
0.10432127
0.051443722
0.024036623
0.010655033
0.0044370467
0.0017017565
0.00058653209
0.00019063467
0.00011727241
0.00033374148
0.0024080664
0.093622192
0.10220493
0.10193763
0.10242999
0.10980481
0.12990026
0.18932812
0.4065459
0.83217706
1.0558864
0.83191683
0.43384891
0.37310712
0.59954021
0.69374991
0.64104575
0.5008657
0.33791722
0.19723688
0.1042019
0.051383586
0.024008452
0.010642622
0.0044319282
0.0016998144
0.00058587021
0.00019042263
0.00011714449
0.00033337763
0.0024054272
0.093627315
0.10220912
0.10194042
0.10242368
0.10977965
0.12982502
0.18904944
0.40536052
0.82992415
1.0536198
0.83027906
0.4331403
0.3728859
0.59932863
0.6934288
0.64065437
0.5004803
0.33759477
0.19702535
0.10408359
0.051323983
0.023980531
0.010630321
0.0044268549
0.0016978893
0.00058521403
0.00019021215
0.00011701684
0.00033301364
0.0024027867
0.093632538
0.10221346
0.10194345
0.10241771
0.10975503
0.12975084
0.18877327
0.40417959
0.82766936
1.0513447
0.828633
0.43242882
0.37266637
0.59912072
0.69311247
0.64026784
0.50009897
0.33727527
0.19681562
0.10396626
0.051264865
0.023952838
0.010618121
0.004421824
0.0016959805
0.00058456339
0.00019000327
0.0001168896
0.00033265005
0.0024001488
0.093637861
0.10221795
0.10194671
0.10241206
0.10973093
0.12967766
0.18849954
0.40300311
0.82541283
1.0490613
0.82697872
0.43171456
0.3724486
0.59891652
0.69280095
0.63988617
0.49972178
0.3369588
0.19660778
0.10384997
0.051206273
0.023925393
0.010606033
0.0044168393
0.0016940894
0.00058391871
0.00018979601
0.00011676258
0.00033228604
0.0023975079
0.093643284
0.10222259
0.1019502
0.10240674
0.10970734
0.12960548
0.18822821
0.40183104
0.82315466
1.0467698
0.82531639
0.43099761
0.37223264
0.5987161
0.6924943
0.63950938
0.49934867
0.33664526
0.1964017
0.10373461
0.051148145
0.023898166
0.010594041
0.0044118953
0.0016922141
0.00058327949
0.00018959032
0.00011663593
0.00033192227
0.0023948685
0.093648806
0.10222738
0.10195391
0.10240172
0.10968425
0.12953424
0.18795921
0.40066334
0.82089497
1.0444701
0.82364626
0.43027802
0.37201854
0.59851948
0.69219252
0.63913752
0.49897971
0.33633477
0.19619751
0.1036203
0.051090544
0.023871187
0.010582159
0.0044069968
0.001690356
0.00058264601
0.0001893862
0.00011650953
0.00033155824
0.0023922269
0.093654428
0.10223231
0.10195783
0.10239701
0.10966163
0.12946394
0.18769249
0.39950002
0.81863386
1.0421627
0.82196843
0.42955584
0.37180635
0.59832675
0.69189568
0.63877057
0.49861485
0.33602719
0.19599509
0.10350693
0.051033407
0.023844423
0.010570373
0.0044021383
0.0016885133
0.00058201781
0.00018918359
0.0001163835
0.00033119452
0.0023895875
0.09366015
0.10223739
0.10196196
0.10239259
0.10963947
0.12939453
0.187428
0.39834097
0.8163714
1.0398476
0.82028296
0.4288312
0.37159614
0.59813788
0.69160377
0.63840862
0.49825421
0.33572269
0.19579456
0.1033946
0.050976787
0.023817903
0.010558693
0.0043973238
0.0016866873
0.00058139519
0.0001889825
0.0001162577
0.00033083055
0.0023869461
0.09366597
0.10224261
0.10196629
0.10238845
0.10961777
0.129326
0.18716565
0.39718621
0.81410766
1.0375248
0.81859004
0.42810422
0.37138797
0.59795293
0.69131687
0.63805169
0.49789779
0.33542123
0.19559586
0.10328324
0.050920646
0.023791604
0.010547112
0.0043925502
0.001684877
0.00058077792
0.00018878297
0.00011613234
0.0003304671
0.0023843084
0.09367189
0.10224796
0.10197082
0.10238458
0.10959649
0.12925831
0.18690541
0.39603562
0.8118427
1.0351946
0.81688995
0.42737496
0.37118188
0.59777195
0.69103498
0.63769981
0.49754565
0.33512294
0.19539915
0.10317299
0.050865067
0.023765572
0.010535649
0.0043878255
0.0016830852
0.00058016684
0.00018858512
0.00011600725
0.0003301034
0.0023816685
0.093677909
0.10225345
0.10197554
0.10238099
0.10957564
0.12919145
0.18664723
0.39488918
0.80957664
1.0328572
0.8151828
0.42664345
0.37097792
0.59759501
0.69075818
0.63735295
0.49719766
0.3348276
0.19520422
0.10306368
0.050809959
0.02373976
0.010524284
0.0043831421
0.0016813094
0.00057956124
0.00018838884
0.00011588253
0.00032973992
0.0023790301
0.093684027
0.10225908
0.10198045
0.10237765
0.1095552
0.12912538
0.18639104
0.39374679
0.80730958
1.0305127
0.81346864
0.4259098
0.37077613
0.59742212
0.69048645
0.63701116
0.49685391
0.33453532
0.19501116
0.1029554
0.050755359
0.023714187
0.010513025
0.0043785024
0.0016795502
0.00057896124
0.00018819409
0.000115758
0.00032937603
0.0023763887
0.093690242
0.10226483
0.10198553
0.10237456
0.10953515
0.12906008
0.1861368
0.3926084
0.80504157
1.0281612
0.81174759
0.42517408
0.37057656
0.59725333
0.69021987
0.63667448
0.4965144
0.33424606
0.19481991
0.10284807
0.050701222
0.023688826
0.010501859
0.0043739014
0.0016778059
0.00057836629
0.00018800079
0.00011563386
0.00032901255
0.00237375
0.093696553
0.10227072
0.1019908
0.10237171
0.10951548
0.12899553
0.18588446
0.39147397
0.80277268
1.025803
0.81001985
0.4244363
0.37037925
0.59708865
0.68995842
0.63634292
0.4961792
0.33395996
0.19463063
0.10274182
0.050647636
0.023663724
0.010490807
0.0043693471
0.001676079
0.0005777771
0.00018780902
0.0001155099
0.0003286486
0.0023711077
0.09370296
0.10227673
0.10199623
0.1023691
0.10949618
0.12893171
0.18563397
0.39034337
0.80050294
1.023438
0.80828552
0.42369652
0.37018424
0.59692812
0.68970214
0.63601647
0.49584822
0.33367686
0.19444314
0.10263654
0.050594525
0.023638845
0.010479854
0.0043648343
0.0016743681
0.00057719336
0.00018761881
0.00011538633
0.00032828497
0.0023684675
0.093709461
0.10228286
0.10200183
0.10236672
0.10947723
0.12886859
0.18538526
0.38921662
0.79823239
1.0210664
0.80654455
0.42295484
0.36999156
0.59677173
0.68945105
0.6356952
0.49552157
0.33339687
0.19425758
0.10253231
0.05054194
0.023614214
0.010469011
0.0043603674
0.0016726748
0.00057661555
0.00018743022
0.00011526299
0.00032792097
0.0023658246
0.093716055
0.10228912
0.1020076
0.10236455
0.10945863
0.12880614
0.1851383
0.38809359
0.79596107
1.0186883
0.80479698
0.42221136
0.36980125
0.59661952
0.6892052
0.63537914
0.49519925
0.33311996
0.19407384
0.10242903
0.050489822
0.023589798
0.010458263
0.0043559399
0.0016709966
0.00057604294
0.00018724314
0.00011514004
0.00032755738
0.0023631845
0.093722741
0.10229551
0.10201352
0.10236259
0.10944037
0.12874436
0.18489305
0.38697429
0.79368901
1.0163038
0.80304302
0.42146609
0.36961335
0.59647149
0.68896456
0.63506828
0.49488132
0.33284627
0.19389211
0.10232687
0.050438265
0.023565646
0.010447631
0.00435156
0.0016693363
0.00057547622
0.00018705764
0.00011501734
0.00032719352
0.0023605422
0.093729518
0.10230202
0.10201959
0.10236084
0.10942242
0.12868321
0.18464945
0.38585866
0.79141621
1.0139128
0.80128276
0.42071903
0.36942786
0.59632773
0.68872918
0.63476262
0.49456767
0.33257563
0.19371221
0.10222569
0.05038719
0.023541718
0.010437098
0.0043472212
0.0016676917
0.00057491484
0.00018687368
0.00011489503
0.00032683001
0.0023579022
0.093736383
0.10230864
0.1020258
0.10235928
0.10940479
0.12862268
0.18440745
0.3847466
0.78914268
1.0115156
0.79951617
0.41997029
0.36924483
0.59618817
0.68849904
0.63446217
0.49425838
0.33230814
0.19353426
0.10212556
0.050336649
0.023518042
0.010426677
0.0043429286
0.0016660646
0.00057435933
0.00018669129
0.0001147729
0.00032646602
0.0023552587
0.093743337
0.10231539
0.10203216
0.10235791
0.10938746
0.12856274
0.18416701
0.38363813
0.78686843
1.0091121
0.79774324
0.41921997
0.36906429
0.59605283
0.68827415
0.63416694
0.49395344
0.33204374
0.19335814
0.10202642
0.050286585
0.023494587
0.010416353
0.0043386769
0.0016644534
0.00057380923
0.00018651046
0.00011465118
0.00032610239
0.0023526176
0.093750377
0.10232225
0.10203865
0.10235673
0.10937042
0.12850339
0.18392811
0.38253304
0.7845935
1.0067025
0.79596419
0.41846813
0.36888626
0.59592171
0.68805449
0.63387693
0.4936529
0.33178258
0.19318405
0.10192839
0.050237086
0.023471398
0.010406148
0.0043344741
0.0016628605
0.00057326526
0.00018633129
0.00011452968
0.00032573841
0.0023499737
0.093757503
0.10232922
0.10204527
0.10235572
0.10935365
0.12844461
0.1836907
0.38143135
0.78231793
1.0042868
0.79417915
0.41771477
0.36871077
0.59579486
0.6878401
0.63359211
0.49335662
0.33152443
0.19301176
0.10183131
0.05018806
0.02344843
0.01039604
0.004330312
0.0016612834
0.00057272664
0.00018615364
0.00011440855
0.00032537464
0.0023473312
0.093764712
0.10233631
0.10205202
0.10235489
0.10933716
0.12838637
0.18345472
0.38033294
0.78004172
1.0018652
0.79238807
0.41696001
0.36853784
0.59567223
0.68763094
0.63331251
0.49306471
0.33126942
0.19284139
0.10173529
0.050139556
0.023425707
0.010386041
0.0043261947
0.0016597232
0.00057219372
0.00018597754
0.00011428761
0.00032501044
0.0023446855
0.093772004
0.1023435
0.10205889
0.10235421
0.10932093
0.12832867
0.18322015
0.37923778
0.77776489
0.99943772
0.79059097
0.41620391
0.3683675
0.59555381
0.68742701
0.63303813
0.49277718
0.33101753
0.19267289
0.10164024
0.050091532
0.023403204
0.010376138
0.0043221174
0.0016581784
0.000571666
0.00018580294
0.0001141671
0.00032464679
0.0023420436
0.093779378
0.10235081
0.10206588
0.1023537
0.10930496
0.12827148
0.18298693
0.37814586
0.77548743
0.99700441
0.78878808
0.4154465
0.36819977
0.59543956
0.68722826
0.63276899
0.4924941
0.33076895
0.19250646
0.10154636
0.050044095
0.02338098
0.010366358
0.004318091
0.0016566526
0.00057114461
0.00018563005
0.00011404686
0.00032428291
0.0023393997
0.093786833
0.10235822
0.10207298
0.10235334
0.10928923
0.1282148
0.18275505
0.37705702
0.77320933
0.99456528
0.78697958
0.41468784
0.36803468
0.59532954
0.68703472
0.632505
0.4922153
0.33052342
0.19234188
0.10145346
0.049997148
0.023358985
0.010356682
0.0043141076
0.0016551435
0.00057062894
0.00018545879
0.00011392701
0.00032391927
0.0023367575
0.093794367
0.10236574
0.10208019
0.10235312
0.10927374
0.12815862
0.18252448
0.37597133
0.77093062
0.99212048
0.78516544
0.413928
0.36787225
0.59522373
0.68684636
0.63224618
0.49194082
0.33028101
0.19217921
0.10136161
0.049950729
0.023337241
0.010347116
0.0043101707
0.0016536522
0.00057011925
0.00018528918
0.00011380738
0.00032355522
0.0023341122
0.093801979
0.10237336
0.10208752
0.10235305
0.10925848
0.12810291
0.18229519
0.37488868
0.76865127
0.98967001
0.7833457
0.41316709
0.36771253
0.59512211
0.68666319
0.63199254
0.49167065
0.33004166
0.19201836
0.10127072
0.049904775
0.02331571
0.010337645
0.0043062729
0.001652176
0.00056961472
0.00018512104
0.00011368811
0.00032319144
0.0023314687
0.093809666
0.10238108
0.10209494
0.10235311
0.10924345
0.12804768
0.18206713
0.37380906
0.76637127
0.98721391
0.78152057
0.41240514
0.36755553
0.59502467
0.68648516
0.63174404
0.49140484
0.32980551
0.19185951
0.10118093
0.049859381
0.023294443
0.010328289
0.0043024229
0.0016507177
0.00056911611
0.00018495448
0.00011356904
0.00032282723
0.0023288218
0.093817427
0.10238891
0.10210247
0.10235331
0.10922863
0.12799291
0.18184027
0.37273255
0.76409058
0.9847522
0.77969021
0.41164215
0.36740127
0.59493146
0.68631228
0.63150065
0.49114325
0.32957236
0.19170247
0.1010921
0.04981446
0.023273397
0.010319032
0.0042986136
0.001649275
0.00056862282
0.00018478943
0.00011345034
0.00032246331
0.002326177
0.09382526
0.10239683
0.10211009
0.10235363
0.10921402
0.12793858
0.1816146
0.3716589
0.76180923
0.98228496
0.77785467
0.41087827
0.36724979
0.5948424
0.68614449
0.63126236
0.49088597
0.32934233
0.19154734
0.10100433
0.049770072
0.023252603
0.010309887
0.0042948511
0.0016478501
0.0005681355
0.00018462602
0.00011333188
0.00032209909
0.0023235299
0.093833162
0.10240485
0.10211781
0.10235408
0.10919962
0.1278847
0.18139008
0.37058818
0.75952727
0.97981236
0.776014
0.41011355
0.36710113
0.59475753
0.68598184
0.63102918
0.49063293
0.32911533
0.19139403
0.10091752
0.049726154
0.023232026
0.010300838
0.0042911289
0.0016464408
0.00056765356
0.00018446417
0.00011321385
0.00032173537
0.0023208862
0.093841133
0.10241296
0.10212563
0.10235465
0.10918541
0.12783124
0.18116669
0.36952027
0.75724466
0.97733447
0.7741684
0.40934802
0.3669553
0.59467679
0.68582424
0.63080109
0.49038422
0.32889153
0.19124272
0.10083183
0.049682802
0.023211719
0.010291909
0.0042874563
0.0016450502
0.00056717784
0.00018430399
0.00011309604
0.00032137118
0.0023182388
0.093849169
0.10242118
0.10213354
0.10235534
0.10917139
0.1277782
0.18094442
0.36845516
0.75496143
0.97485141
0.77231799
0.40858167
0.36681232
0.59460025
0.68567171
0.63057802
0.49013966
0.32867065
0.19109317
0.10074706
0.04963991
0.023191625
0.010283075
0.0042838231
0.0016436748
0.0005667073
0.00018414529
0.00011297856
0.00032100713
0.0023155924
0.093857269
0.10242948
0.10214153
0.10235614
0.10915756
0.12772556
0.18072323
0.36739288
0.75267759
0.97236319
0.77046277
0.40781458
0.36667223
0.59452786
0.68552423
0.63036001
0.48989937
0.32845287
0.19094552
0.10066334
0.04959754
0.023171778
0.01027435
0.0042802352
0.0016423167
0.00056624253
0.00018398816
0.00011286131
0.00032064285
0.0023129442
0.093865431
0.10243789
0.10214962
0.10235705
0.10914392
0.12767332
0.1805031
0.36633326
0.75039311
0.96986981
0.76860282
0.40704686
0.36653507
0.59445961
0.68538181
0.63014708
0.48966336
0.32823815
0.19079971
0.10058059
0.049555649
0.023152151
0.010265722
0.0042766875
0.0016409739
0.00056578299
0.00018383255
0.00011274453
0.00032027919
0.0023103003
0.093873654
0.10244638
0.1021578
0.10235807
0.10913044
0.12762146
0.18028399
0.36527639
0.74810805
0.96737139
0.76673836
0.40627851
0.36640087
0.59439552
0.68524441
0.62993922
0.48943167
0.32802666
0.19065594
0.10049898
0.04951434
0.023132802
0.010257217
0.0042731911
0.0016396505
0.0005653299
0.00018367868
0.00011262801
0.00031991527
0.0023076543
0.093881935
0.10245497
0.10216606
0.10235919
0.10911713
0.12756997
0.1800659
0.3642222
0.74582236
0.96486803
0.76486952
0.40550953
0.36626962
0.59433565
0.68511206
0.62973633
0.48920411
0.3278181
0.19051394
0.10041833
0.049473506
0.023113677
0.010248813
0.0042697368
0.0016383434
0.00056488244
0.00018352645
0.00011251191
0.00031955168
0.0023050105
0.093890273
0.10246365
0.1021744
0.1023604
0.10910399
0.12751884
0.17984881
0.36317065
0.74353608
0.96235989
0.76299626
0.40473998
0.36614137
0.59427995
0.68498474
0.62953844
0.48898074
0.32761256
0.19037379
0.10033869
0.049433184
0.023094794
0.010240517
0.0042663279
0.0016370538
0.00056444085
0.00018337579
0.00011239596
0.00031918749
0.0023023623
0.093898666
0.10247243
0.10218283
0.10236171
0.109091
0.12746804
0.1796327
0.36212177
0.74124921
0.95984696
0.76111863
0.4039699
0.36601614
0.59422846
0.68486246
0.62934556
0.48876152
0.32740995
0.19023538
0.10025997
0.049393305
0.023076114
0.01023231
0.0042629562
0.0016357784
0.00056400416
0.00018322656
0.00011228042
0.00031882381
0.0022997176
0.093907112
0.10248129
0.10219133
0.10236311
0.10907817
0.12741759
0.17941755
0.36107543
0.73896176
0.95732925
0.75923683
0.40319931
0.36589393
0.59418111
0.68474514
0.62915767
0.48854658
0.32721052
0.19009898
0.10018236
0.049353995
0.023057706
0.010224224
0.0042596341
0.0016345217
0.00056357367
0.00018307901
0.00011216515
0.00031845986
0.0022970708
0.09391561
0.10249024
0.1021999
0.1023646
0.10906549
0.12736746
0.17920331
0.36003171
0.73667376
0.95480693
0.75735089
0.40242821
0.36577475
0.59413796
0.68463282
0.62897471
0.48833572
0.327014
0.18996433
0.1001057
0.049315155
0.023039517
0.010216236
0.004256353
0.0016332809
0.00056314858
0.00018293302
0.00011205031
0.00031809644
0.0022944275
0.093924159
0.10249928
0.10220855
0.10236617
0.10905295
0.12731764
0.17898999
0.35899054
0.7343852
0.95228006
0.75546079
0.40165671
0.36565864
0.59409894
0.68452545
0.62879668
0.48812902
0.3268205
0.18983156
0.10003006
0.049276837
0.023021577
0.010208359
0.0042531184
0.0016320578
0.00056272947
0.00018278865
0.00011193565
0.0003177325
0.0022917805
0.093932757
0.1025084
0.10221727
0.10236783
0.10904054
0.12726815
0.17877758
0.35795189
0.73209608
0.94974879
0.75356664
0.40088481
0.36554561
0.59406412
0.68442307
0.62862358
0.48792639
0.32662987
0.18970048
0.099955321
0.049238953
0.023003837
0.01020057
0.0042499208
0.001630849
0.00056231529
0.00018264571
0.00011182137
0.00031736892
0.0022891359
0.093941402
0.10251761
0.10222606
0.10236956
0.10902828
0.12721895
0.17856605
0.35691578
0.7298064
0.94721316
0.75166865
0.40011251
0.36543566
0.59403345
0.6843256
0.62845537
0.4877279
0.32644228
0.18957131
0.09988165
0.049201616
0.022986358
0.010192898
0.0042467716
0.0016296586
0.00056190724
0.00018250442
0.00011170733
0.000317005
0.0022864886
0.093950092
0.1025269
0.10223491
0.10237136
0.10901614
0.12717004
0.17835538
0.35588214
0.7275162
0.94467321
0.74976684
0.39933982
0.36532878
0.59400694
0.68423307
0.62829201
0.48753343
0.32625754
0.18944386
0.099808891
0.049164731
0.022969091
0.01018532
0.0042436621
0.0016284836
0.00056150449
0.00018236469
0.00011159374
0.00031664164
0.0022838452
0.093958825
0.10253628
0.10224383
0.10237324
0.10900412
0.12712143
0.17814555
0.354851
0.72522552
0.942129
0.74786116
0.39856682
0.365225
0.59398452
0.6841454
0.62813352
0.48734306
0.32607578
0.18931825
0.099737149
0.049128361
0.022952068
0.010177852
0.0042405983
0.0016273261
0.00056110763
0.00018222656
0.00011148036
0.0003162779
0.0022811991
0.093967598
0.10254575
0.1022528
0.10237519
0.10899222
0.12707308
0.17793655
0.35382233
0.72293437
0.93958052
0.74595179
0.39779356
0.3651243
0.59396622
0.68406264
0.62797989
0.48715674
0.32589688
0.18919433
0.099666294
0.049092422
0.022935244
0.01017047
0.0042375707
0.0016261824
0.00056071554
0.00018208982
0.00011136738
0.00031591464
0.0022785562
0.093976411
0.10255529
0.10226184
0.1023772
0.10898044
0.12702501
0.17772837
0.3527961
0.72064271
0.93702794
0.74403895
0.39702001
0.36502668
0.59395202
0.68398471
0.62783106
0.4869745
0.32572101
0.18907233
0.099596515
0.049057033
0.022918682
0.010163206
0.0042345916
0.0016250571
0.00056032951
0.0001819547
0.0001112546
0.00031555092
0.0022759097
0.093985261
0.10256492
0.10227093
0.10237928
0.10896877
0.12697721
0.177521
0.35177232
0.71835059
0.93447146
0.74212262
0.39624619
0.36493213
0.59394192
0.6839116
0.62768697
0.48679616
0.32554789
0.18895198
0.099527619
0.049022083
0.022902326
0.010156034
0.0042316512
0.0016239468
0.00055994862
0.00018182108
0.00011114224
0.00031518769
0.0022732666
0.093994145
0.10257462
0.10228008
0.10238142
0.10895721
0.12692965
0.1773144
0.35075095
0.71605797
0.93191109
0.74020274
0.39547219
0.36484065
0.59393578
0.68384323
0.62754761
0.48662182
0.32537768
0.18883343
0.099459716
0.048987636
0.02288621
0.010148969