/*--------------------------------*- C++ -*----------------------------------*\
| =========                 |                                                 |
| \\      /  F ield         | OpenFOAM: The Open Source CFD Toolbox           |
|  \\    /   O peration     | Version:  v2012                                 |
|   \\  /    A nd           | Website:  www.openfoam.com                      |
|    \\/     M anipulation  |                                                 |
\*---------------------------------------------------------------------------*/
FoamFile
{
    version     2.0;
    format      ascii;
    class       volScalarField;
    location    "300";
    object      Ma;
}
// * * * * * * * * * * * * * * * * * * * * * * * * * * * * * * * * * * * * * //

dimensions      [0 0 0 0 0 0 0];


internalField   nonuniform List<scalar> 
24000
(
0.039273223
0.039641944
0.040130951
0.040498799
0.04095193
0.04148613
0.040923883
0.038085148
0.035590551
0.033915705
0.0323982
0.030564563
0.028136124
0.025205855
0.022123711
0.019083909
0.016224942
0.013624306
0.01131249
0.0092935081
0.0075544941
0.0060708581
0.0048135199
0.0037530209
0.0028616103
0.0021141926
0.0014886566
0.00096586943
0.00052946676
0.00016555641
0.039265025
0.039634772
0.040126537
0.040500555
0.040963431
0.041512325
0.04097523
0.038160925
0.035664104
0.033982726
0.032462872
0.030632854
0.028212828
0.025291394
0.022218678
0.01918878
0.016341049
0.013753494
0.011455958
0.0094502835
0.0077204704
0.006239279
0.0049764228
0.0039028614
0.0029923829
0.0022219002
0.001571316
0.0010232146
0.00056255407
0.00017637312
0.039259539
0.039629223
0.040119953
0.04049083
0.040947412
0.04148627
0.040941836
0.038125631
0.035624284
0.033943089
0.032426846
0.030601871
0.028187652
0.025270712
0.022200817
0.019171351
0.016321392
0.013728266
0.011422164
0.0094064705
0.00766761
0.0061804176
0.0049156922
0.0038444391
0.0029397606
0.002177566
0.0015367191
0.00099890412
0.00054838148
0.00017169337
0.039252808
0.039622242
0.040112253
0.040481825
0.040936366
0.041473489
0.040934222
0.038124733
0.035620692
0.033937995
0.03242212
0.030598529
0.028186465
0.02527178
0.022204361
0.019177173
0.016328582
0.013737067
0.011433333
0.0094205823
0.0076845256
0.0061992753
0.004935204
0.0038632557
0.0029567387
0.0021918881
0.0015479086
0.0010067778
0.00055298067
0.00017321645
0.039245758
0.039614731
0.040103894
0.040472246
0.040925206
0.041461518
0.040927956
0.038123776
0.035615508
0.033929506
0.03241233
0.0305882
0.02817646
0.025262898
0.022196721
0.019170572
0.016322758
0.013731654
0.011427936
0.0094149248
0.0076785657
0.0061931722
0.0049292355
0.0038577171
0.0029518743
0.0021878641
0.0015448088
0.0010046183
0.00055172809
0.00017280389
0.039238349
0.039606829
0.040095307
0.040462852
0.040914914
0.041451218
0.040923771
0.038124882
0.035612315
0.033922984
0.032403988
0.0305789
0.028166984
0.02525396
0.022188653
0.019163521
0.016316752
0.013726673
0.011423949
0.0094118815
0.0076763721
0.0061916903
0.0049283079
0.0038571903
0.0029516154
0.0021877688
0.001544801
0.0010046463
0.0005517589
0.00017281828
0.039230689
0.039598691
0.04008662
0.040453584
0.04090501
0.041441522
0.040920135
0.038126408
0.035609507
0.033916509
0.032395418
0.030569058
0.028156557
0.025243745
0.022179113
0.019154933
0.016309232
0.01372022
0.011418494
0.0094073217
0.0076725943
0.006188588
0.0049257903
0.0038551808
0.0029500478
0.0021865863
0.0015439525
0.0010040864
0.00055144742
0.00017271939
0.039222846
0.039590404
0.040077896
0.040444422
0.040895338
0.041432129
0.040916775
0.038128174
0.035606977
0.033910157
0.032386878
0.030559133
0.028145882
0.025233152
0.022169122
0.019145873
0.016301259
0.013713367
0.011412718
0.0094025371
0.0076686902
0.006185446
0.0049232983
0.0038532382
0.0029485663
0.0021854913
0.0015431807
0.0010035847
0.00055117177
0.0001726329
0.03921487
0.039582017
0.040069151
0.040435319
0.040885783
0.041422876
0.040913522
0.038130072
0.035604564
0.033903817
0.032378303
0.030549091
0.028135002
0.025222279
0.022158806
0.019136472
0.016292952
0.013706199
0.011406653
0.0093974934
0.0076645569
0.0061821045
0.0049206361
0.0038511538
0.0029469705
0.0021843076
0.0015423437
0.0010030392
0.00055087126
0.00017253834
0.039206795
0.039573559
0.040060388
0.040426241
0.04087628
0.041413685
0.040910314
0.038132032
0.035602258
0.03389751
0.03236971
0.030538979
0.028124008
0.025211255
0.02214832
0.019126897
0.016284477
0.013698879
0.011400457
0.0093923425
0.0076603396
0.0061786996
0.004917928
0.0038490374
0.0029453531
0.0021831099
0.0015414981
0.0010024887
0.00055056823
0.00017244304
0.039198644
0.039565047
0.040051605
0.040417169
0.040866796
0.041404506
0.040907121
0.03813406
0.035599978
0.033891198
0.032361087
0.030528811
0.028112934
0.025200135
0.02213773
0.019117218
0.016275903
0.01369147
0.011394187
0.0093871296
0.007656073
0.0061752569
0.0049151916
0.0038469005
0.0029437212
0.0021819024
0.001540646
0.0010019342
0.00055026301
0.00017234704
0.039190435
0.039556492
0.040042801
0.040408089
0.040857312
0.04139533
0.040903924
0.03813612
0.03559776
0.033884871
0.032352435
0.030518599
0.028101804
0.025188953
0.022127079
0.019107478
0.016267275
0.013684016
0.011387878
0.0093818878
0.0076517856
0.0061718
0.0049124462
0.0038447584
0.0029420868
0.0021806939
0.0015397937
0.0010013798
0.00054995794
0.0001722511
0.039182177
0.039547899
0.040033974
0.040398995
0.040847819
0.041386128
0.040900723
0.038138231
0.035595556
0.033878549
0.032343757
0.030508351
0.028090635
0.025177728
0.022116387
0.019097701
0.016258616
0.013676537
0.011381552
0.0093766352
0.0076474928
0.006168342
0.0049097028
0.00384262
0.0029404567
0.0021794895
0.0015389449
0.0010008279
0.00054965435
0.00017215563
0.039173879
0.039539274
0.040025123
0.040389885
0.04083831
0.041376918
0.040897507
0.038140371
0.035593392
0.033872241
0.032335068
0.030498076
0.028079436
0.025166472
0.022105669
0.019087904
0.016249943
0.013669049
0.011375223
0.0093713832
0.0076432038
0.00616489
0.0049069664
0.0038404889
0.0029388334
0.0021782911
0.0015381008
0.0010002793
0.0005493526
0.00017206074
0.039165546
0.039530618
0.04001625
0.040380755
0.040828778
0.041367699
0.04089428
0.038142558
0.035591257
0.033865922
0.032326375
0.030487785
0.028068209
0.025155193
0.022094933
0.019078094
0.016241262
0.013661558
0.011368894
0.0093661361
0.0076389221
0.0061614469
0.0049042396
0.0038383671
0.0029372186
0.0021770998
0.0015372622
0.00099973456
0.00054905304
0.00017196655
0.03915718
0.039521931
0.040007353
0.040371607
0.040819231
0.041358459
0.04089104
0.038144775
0.035589141
0.033859596
0.032317666
0.030477471
0.028056957
0.025143894
0.022084182
0.019068275
0.016232576
0.013654066
0.011362569
0.0093608946
0.0076346473
0.0061580116
0.0049015208
0.003836253
0.0029356106
0.0021759141
0.0015364279
0.00099919275
0.00054875516
0.00017187289
0.039148786
0.039513215
0.039998435
0.040362439
0.040809668
0.041349206
0.040887782
0.038147038
0.035587075
0.033853302
0.03230894
0.030467135
0.028045681
0.025132576
0.022073418
0.019058447
0.016223888
0.013646575
0.011356245
0.0093556577
0.0076303788
0.0061545836
0.0048988096
0.0038341462
0.0029340092
0.0021747339
0.0015355978
0.00099865388
0.00054845893
0.00017177976
0.039140365
0.039504474
0.039989496
0.040353253
0.040800078
0.041339925
0.040884515
0.038149337
0.035585017
0.033847002
0.032300199
0.030456778
0.028034385
0.025121242
0.022062647
0.019048615
0.016215199
0.013639086
0.011349927
0.009350427
0.0076261173
0.0061511627
0.0048961055
0.0038320457
0.0029324133
0.0021735582
0.0015347711
0.00099811727
0.00054816398
0.00017168703
0.039131919
0.039495709
0.039980536
0.040344044
0.040790466
0.041330628
0.04088123
0.03815167
0.035583015
0.033840696
0.032291453
0.030446402
0.028023068
0.025109895
0.022051867
0.019038778
0.016206509
0.013631599
0.011343612
0.0093452018
0.0076218621
0.0061477486
0.0048934083
0.0038299514
0.0029308229
0.0021723869
0.0015339478
0.00099758299
0.00054787037
0.00017159471
0.039123449
0.039486921
0.039971554
0.04033481
0.040780838
0.041321323
0.040877933
0.038154051
0.035581021
0.033834418
0.03228271
0.030436007
0.028011733
0.025098536
0.022041078
0.019028937
0.016197818
0.013624114
0.011337301
0.0093399812
0.007617612
0.0061443396
0.004890716
0.0038278614
0.0029292361
0.0021712185
0.0015331267
0.00099705021
0.00054757761
0.00017150267
0.039114955
0.039478111
0.03996255
0.040325559
0.040771196
0.041312
0.040874621
0.038156457
0.035579081
0.033828146
0.032273956
0.030425592
0.028000381
0.025087162
0.022030279
0.019019092
0.016189125
0.013616629
0.011330992
0.0093347634
0.0076133657
0.0061409351
0.0048880282
0.0038257759
0.0029276534
0.0021700536
0.0015323082
0.00099651922
0.00054728585
0.00017141094
0.039106439
0.039469279
0.039953526
0.040316287
0.04076154
0.041302663
0.040871293
0.038158919
0.035577161
0.03382187
0.03226519
0.030415167
0.027989009
0.025075775
0.022019472
0.019009244
0.016180432
0.013609145
0.011324686
0.0093295495
0.0076091234
0.0061375345
0.004885344
0.0038236934
0.0029260733
0.0021688907
0.0015314913
0.00099598933
0.0005469947
0.00017131941
0.039097896
0.039460425
0.039944483
0.040306995
0.040751871
0.041293305
0.040867956
0.038161403
0.03557528
0.03381561
0.032256412
0.030404731
0.027977619
0.025064375
0.022008656
0.018999393
0.016171738
0.013601663
0.011318383
0.0093243394
0.0076048855
0.0061341386
0.0048826643
0.0038216151
0.0029244969
0.0021677307
0.0015306766
0.00099546097
0.00054670442
0.00017122815
0.039089331
0.039451551
0.039935413
0.040297686
0.040742188
0.041283927
0.0408646
0.038163939
0.035573436
0.033809371
0.032247634
0.030394278
0.027966213
0.025052961
0.02199783
0.018989535
0.016163041
0.01359418
0.011312082
0.0093191317
0.0076006505
0.0061307461
0.0048799874
0.0038195392
0.0029229225
0.0021665724
0.0015298631
0.00099493342
0.00054641459
0.00017113704
0.039080745
0.039442656
0.039926324
0.040288361
0.040732484
0.041274542
0.040861235
0.0381665
0.035571617
0.033803128
0.032238859
0.030383807
0.027954789
0.025041532
0.021986994
0.018979671
0.01615434
0.013586695
0.011305779
0.0093139232
0.0075964156
0.0061273546
0.004877312
0.0038174652
0.00292135
0.0021654157
0.0015290509
0.00099440681
0.0005461253
0.0001710461
0.039072139
0.039433741
0.039917217
0.040279019
0.040722764
0.041265142
0.040857851
0.038169112
0.035569849
0.033796891
0.032230074
0.030373317
0.027943346
0.025030087
0.021976147
0.0189698
0.016145636
0.013579208
0.011299475
0.0093087153
0.0075921816
0.0061239639
0.0048746376
0.0038153921
0.0029197783
0.0021642598
0.0015282393
0.0009938806
0.00054583625
0.00017095523
0.039063512
0.039424806
0.039908092
0.040269661
0.04071303
0.041255726
0.040854455
0.038171756
0.035568098
0.033790688
0.032221278
0.030362811
0.027931884
0.025018628
0.02196529
0.018959924
0.016136928
0.01357172
0.011293171
0.0093035081
0.007587949
0.0061205751
0.0048719652
0.003813321
0.0029182085
0.0021631055
0.001527429
0.00099335531
0.00054554772
0.00017086454
0.039054866
0.039415852
0.039898949
0.040260287
0.040703284
0.041246296
0.040851046
0.038174436
0.035566407
0.033784482
0.032212472
0.030352287
0.027920404
0.025007153
0.021954424
0.018950041
0.016128216
0.013564229
0.011286867
0.0092983006
0.0075837162
0.0061171862
0.0048692926
0.0038112497
0.0029166383
0.0021619508
0.0015266185
0.00099282983
0.00054525908
0.00017077381
0.039046199
0.039406878
0.039889789
0.040250897
0.040693509
0.04123684
0.040847618
0.038177163
0.03556473
0.033778275
0.03220367
0.030341748
0.027908903
0.024995663
0.021943547
0.018940149
0.016119498
0.013556734
0.011280559
0.0092930901
0.0075794815
0.0061137961
0.0048666196
0.0038091783
0.0029150685
0.0021607965
0.0015258082
0.00099230459
0.00054497059
0.00017068313
0.039037514
0.039397886
0.039880611
0.040241491
0.040683718
0.041227377
0.04084418
0.038179913
0.035563111
0.03377211
0.032194869
0.030331201
0.027897383
0.024984158
0.02193266
0.018930251
0.016110776
0.013549236
0.011274249
0.0092878786
0.0075752457
0.0061104052
0.0048639457
0.0038071062
0.002913498
0.0021596418
0.0015249977
0.00099177917
0.000544682
0.00017059241
0.039028809
0.039388875
0.039871416
0.04023207
0.040673913
0.041217902
0.040840722
0.038182719
0.03556151
0.033765944
0.032186059
0.03032064
0.027885847
0.024972637
0.021921763
0.018920346
0.01610205
0.013541736
0.011267937
0.0092826662
0.0075710098
0.0061070145
0.0048612724
0.0038050349
0.0029119284
0.0021584878
0.0015241877
0.00099125418
0.00054439366
0.00017050179
0.039020086
0.039379846
0.039862204
0.040222632
0.040664096
0.041208408
0.040837251
0.038185545
0.035559964
0.033759776
0.032177239
0.030310062
0.027874293
0.024961102
0.021910855
0.018910433
0.016093319
0.013534234
0.011261625
0.009277453
0.0075667732
0.0061036232
0.0048585984
0.0038029628
0.002910358
0.0021573332
0.0015233773
0.00099072883
0.00054410512
0.0001704111
0.039011344
0.039370798
0.039852975
0.040213179
0.040654265
0.041198903
0.040833764
0.038188422
0.035558441
0.033753646
0.032168409
0.030299466
0.027862719
0.024949554
0.021899935
0.018900513
0.016084581
0.013526727
0.011255309
0.0092722364
0.0075625346
0.0061002304
0.0048559236
0.0038008904
0.0029087876
0.0021561786
0.001522567
0.00099020361
0.00054381666
0.00017032045
0.039002584
0.039361732
0.039843728
0.040203709
0.040644422
0.041189367
0.040830258
0.038191326
0.035556966
0.033747522
0.032159589
0.030288853
0.027851125
0.024937991
0.021889006
0.018890585
0.01607584
0.013519218
0.011248991
0.0092670184
0.0075582948
0.0060968363
0.0048532476
0.0037988169
0.0029072163
0.0021550235
0.0015217562
0.00098967806
0.00054352801
0.00017022973
0.038993806
0.039352646
0.039834464
0.040194224
0.040634562
0.041179823
0.040826738
0.038194267
0.035555524
0.033741397
0.032150767
0.030278222
0.027839518
0.024926414
0.021878068
0.01888065
0.016067093
0.013511705
0.011242671
0.0092617994
0.0075540545
0.0060934423
0.004850572
0.0037967441
0.0029056458
0.0021538689
0.001520946
0.00098915294
0.00054323962
0.0001701391
0.03898501
0.039343542
0.039825184
0.040184717
0.04062468
0.041170267
0.040823196
0.038197249
0.035554119
0.033735303
0.032141935
0.030267576
0.027827893
0.024914825
0.021867121
0.018870709
0.016058343
0.01350419
0.01123635
0.0092565795
0.0075498134
0.0060900474
0.0048478954
0.0037946702
0.0029040741
0.0021527134
0.001520135
0.00098862726
0.00054295091
0.00017004836
0.038976197
0.03933442
0.039815886
0.040175188
0.040614785
0.04116069
0.04081964
0.038200252
0.035552757
0.033729223
0.032133092
0.030256921
0.027816248
0.02490322
0.021856162
0.01886076
0.016049587
0.01349667
0.011230024
0.0092513564
0.00754557
0.006086651
0.0048452181
0.003792596
0.0029025025
0.0021515581
0.0015193242
0.00098810177
0.00054266232
0.00016995767
0.038967366
0.039325282
0.039806572
0.040165644
0.040604877
0.041151103
0.040816062
0.038203309
0.035551422
0.033723141
0.032124242
0.030246254
0.027804585
0.024891601
0.021845192
0.018850803
0.016040826
0.013489148
0.011223697
0.0092461322
0.0075413255
0.006083253
0.0048425392
0.0037905205
0.0029009297
0.0021504019
0.0015185127
0.00098757578
0.00054237344
0.00016986688
0.038958518
0.039316126
0.039797241
0.040156077
0.04059495
0.041141484
0.040812465
0.038206381
0.035550138
0.033717086
0.032115406
0.03023557
0.027792903
0.024879966
0.021834213
0.01884084
0.016032063
0.013481623
0.011217369
0.0092409072
0.0075370809
0.0060798551
0.0048398606
0.0037884457
0.0028993575
0.0021492461
0.0015177017
0.00098705014
0.00054208477
0.00016977617
0.038949652
0.039306954
0.039787893
0.040146494
0.040584996
0.041131853
0.04080885
0.038209501
0.035548875
0.033711051
0.032106564
0.030224871
0.027781203
0.024868319
0.021823224
0.018830875
0.016023297
0.013474097
0.01121104
0.0092356828
0.0075328369
0.0060764576
0.0048371821
0.0037863708
0.0028977848
0.0021480899
0.0015168903
0.00098652418
0.00054179592
0.00016968539
0.038940768
0.039297765
0.039778529
0.040136896
0.040575027
0.04112221
0.040805212
0.038212647
0.03554767
0.033705014
0.032097711
0.030214155
0.027769486
0.024856656
0.021812225
0.018820903
0.016014526
0.013466566
0.011204708
0.009230456
0.0075285915
0.0060730597
0.0048345039
0.0037842967
0.0028962131
0.0021469347
0.0015160798
0.00098599881
0.00054150741
0.00016959474
0.038931867
0.039288559
0.039769149
0.040127281
0.040565044
0.041112543
0.040801556
0.03821582
0.03554648
0.033698998
0.032088847
0.03020342
0.027757752
0.024844979
0.021801215
0.018810924
0.01600575
0.013459034
0.011198374
0.0092252273
0.0075243443
0.00606966
0.004831824
0.0037822211
0.0028946402
0.0021457786
0.0015152685
0.00098547295
0.00054121862
0.00016950399
0.03892295
0.039279338
0.039759748
0.040117651
0.040555047
0.041102866
0.040797873
0.038219035
0.035545346
0.033693006
0.032079984
0.030192669
0.027746
0.024833286
0.021790196
0.018800939
0.01599697
0.013451498
0.011192038
0.0092199965
0.0075200955
0.0060662592
0.0048291435
0.0037801453
0.0028930673
0.0021446227
0.0015144574
0.00098494726
0.00054092995
0.00016941329
0.038914016
0.039270101
0.03975033
0.040108005
0.040545037
0.041093158
0.040794171
0.038222263
0.035544229
0.033687012
0.032071128
0.030181908
0.027734229
0.024821581
0.021779168
0.018790948
0.015988187
0.01344396
0.0111857
0.0092147653
0.0075158463
0.0060628578
0.0048264622
0.0037780685
0.0028914933
0.0021434658
0.0015136455
0.00098442103
0.00054064097
0.00016932249
0.038905066
0.039260847
0.039740896
0.040098343
0.040535013
0.041083434
0.040790445
0.03822554
0.035543166
0.033681036
0.032062263
0.030171137
0.027722443
0.02480986
0.02176813
0.018780949
0.015979398
0.013436418
0.011179359
0.0092095319
0.0075115953
0.0060594555
0.0048237806
0.0037759919
0.0028899198
0.0021423095
0.0015128342
0.00098389521
0.00054035224
0.00016923177
0.038896101
0.039251579
0.039731443
0.040088666
0.040524963
0.041073697
0.040786693
0.038228831
0.035542119
0.033675085
0.032053386
0.030160349
0.027710641
0.024798127
0.021757082
0.018770943
0.015970606
0.013428873
0.011173016
0.009204297
0.0075073423
0.0060560511
0.004821097
0.0037739134
0.0028883447
0.0021411519
0.0015120219
0.00098336865
0.00054006307
0.00016914092
0.03888712
0.039242291
0.039721968
0.040078973
0.040514898
0.041063934
0.04078292
0.038232154
0.035541125
0.033669132
0.032044499
0.030149545
0.027698821
0.024786382
0.021746024
0.018760931
0.015961809
0.013421326
0.011166671
0.0091990609
0.0075030888
0.0060526465
0.0048184135
0.0037718353
0.00288677
0.0021399948
0.00151121
0.00098284241
0.00053977411
0.00016905013
0.038878123
0.039232986
0.039712477
0.040069264
0.04050482
0.04105416
0.040779119
0.038235509
0.035540149
0.033663195
0.032035622
0.030138723
0.027686983
0.024774624
0.021734957
0.018750913
0.015953009
0.013413777
0.011160327
0.0091938251
0.0074988354
0.0060492418
0.0048157296
0.0037697565
0.0028851946
0.0021388369
0.0015103975
0.00098231571
0.00053948489
0.00016895926
0.038869111
0.039223665
0.03970297
0.040059539
0.040494728
0.041044358
0.040775294
0.038238874
0.035539221
0.033657283
0.032026741
0.030127884
0.027675126
0.024762853
0.021723879
0.018740887
0.015944203
0.013406223
0.011153979
0.0091885861
0.00749458
0.0060458362
0.0048130456
0.003767678
0.0028836197
0.0021376797
0.0015095855
0.00098178944
0.00053919596
0.00016886847
0.038860084
0.039214329
0.039693447
0.040049798
0.040484605
0.041034534
0.04077144
0.038242286
0.035538311
0.033651367
0.032017848
0.030117025
0.027663249
0.024751066
0.021712794
0.018730854
0.015935392
0.013398666
0.011147628
0.0091833451
0.0074903227
0.0060424286
0.0048103597
0.003765598
0.0028820435
0.0021365215
0.0015087728
0.00098126265
0.00053890673
0.00016877759
0.038851042
0.039204979
0.039683909
0.040040042
0.040474464
0.041024698
0.040767561
0.038245705
0.035537448
0.033645465
0.032008943
0.030106154
0.027651353
0.024739265
0.021701699
0.018720814
0.015926576
0.013391105
0.011141274
0.0091781022
0.007486064
0.0060390204
0.0048076737
0.0037635181
0.0028804677
0.0021353637
0.0015079605
0.00098073619
0.0005386177
0.00016868677
0.038841985
0.039195613
0.039674355
0.040030271
0.04046431
0.041014834
0.040763655
0.038249156
0.035536605
0.03363959
0.032000032
0.030095275
0.027639444
0.024727451
0.021690595
0.018710769
0.015917757
0.013383543
0.01113492
0.0091728592
0.0074818052
0.0060356117
0.0048049873
0.0037614371
0.0028788907
0.0021342048
0.0015071473
0.00098020917
0.00053832831
0.00016859584
0.038832914
0.039186234
0.039664786
0.040020473
0.040454141
0.041004959
0.04075972
0.038252632
0.035535806
0.033633709
0.031991131
0.030084379
0.027627515
0.024715622
0.02167948
0.018700717
0.015908933
0.013375977
0.011128563
0.0091676134
0.0074775445
0.0060322023
0.0048023008
0.0037593564
0.0028773142
0.0021330465
0.0015063346
0.00097968252
0.00053803914
0.00016850499
0.038823829
0.03917684
0.039655202
0.040010661
0.040443959
0.040995058
0.040755759
0.038256114
0.035535027
0.033627844
0.031982219
0.030073466
0.027615567
0.024703779
0.021668356
0.018690658
0.015900105
0.01336841
0.011122203
0.0091623659
0.007473282
0.0060287911
0.0047996124
0.0037572739
0.0028757364
0.002131887
0.001505521
0.00097915524
0.00053774962
0.00016841402
0.03881473
0.039167431
0.039645603
0.040000826
0.040433763
0.040985133
0.040751765
0.038259642
0.03553429
0.033622003
0.031973294
0.030062533
0.027603602
0.024691921
0.021657222
0.018680592
0.015891272
0.013360839
0.011115841
0.0091571163
0.007469018
0.0060253794
0.0047969235
0.0037551912
0.0028741587
0.0021307276
0.0015047075
0.00097862813
0.0005374602
0.00016832308
0.038805617
0.039158009
0.039635989
0.039990978
0.040423545
0.040975196
0.040747745
0.038263174
0.035533574
0.033616156
0.031964357
0.030051582
0.027591623
0.02468005
0.021646079
0.018670521
0.015882437
0.013353268
0.01110948
0.0091518673
0.0074647543
0.0060219676
0.0047942341
0.0037531077
0.0028725801
0.0021295673
0.0015038934
0.00097810047
0.00053717048
0.00016823205
0.038796487
0.039148574
0.039626361
0.039981114
0.04041331
0.04096523
0.040743695
0.038266732
0.035532898
0.033610327
0.031955422
0.030040613
0.027579625
0.024668165
0.021634926
0.018660447
0.015873597
0.013345692
0.011103117
0.0091466162
0.0074604895
0.0060185556
0.0047915452
0.0037510252
0.0028710027
0.002128408
0.00150308
0.00097757343
0.00053688115
0.00016814113
0.038787342
0.039139124
0.039616719
0.039971236
0.040403062
0.040955254
0.040739615
0.038270312
0.035532242
0.033604517
0.031946486
0.03002963
0.027567609
0.024656268
0.021623764
0.018650368
0.015864756
0.013338115
0.011096752
0.0091413639
0.0074562235
0.0060151423
0.004788855
0.0037489414
0.0028694241
0.0021272479
0.0015022661
0.00097704598
0.00053659155
0.00016805013
0.038778183
0.039129661
0.039607063
0.039961345
0.040392803
0.040945254
0.040735506
0.038273895
0.035531626
0.033598702
0.031937536
0.030018636
0.027555573
0.024644359
0.021612596
0.018640284
0.01585591
0.013330535
0.011090385
0.0091361097
0.0074519561
0.0060117281
0.0047861643
0.0037468575
0.0028678457
0.002126088
0.0015014523
0.00097651874
0.00053630208
0.00016795918
0.038769011
0.039120184
0.039597392
0.039951439
0.04038252
0.040935228
0.040731364
0.038277521
0.035531029
0.033592907
0.031928573
0.030007625
0.027543518
0.024632437
0.021601418
0.018630194
0.015847062
0.013322954
0.011084017
0.0091308555
0.0074476889
0.0060083133
0.0047834727
0.0037447725
0.0028662662
0.002124927
0.0015006377
0.00097599094
0.00053601229
0.00016786812
0.038759825
0.039110694
0.039587707
0.039941519
0.040372215
0.04092519
0.040727193
0.038281149
0.035530472
0.033587128
0.031919597
0.029996595
0.027531445
0.024620504
0.021590232
0.018620098
0.01583821
0.013315369
0.011077647
0.0091255987
0.0074434199
0.0060048974
0.0047807806
0.0037426874
0.0028646869
0.0021237664
0.0014998235
0.00097546338
0.00053572265
0.00016777712
0.038750627
0.039101191
0.039578009
0.039931585
0.040361897
0.040915123
0.040722988
0.038284795
0.035529932
0.033581342
0.031910631
0.029985544
0.027519355
0.024608556
0.021579035
0.018609997
0.015829355
0.013307783
0.011071275
0.009120341
0.0074391494
0.0060014799
0.0047780868
0.0037406006
0.002863106
0.0021226045
0.0014990082
0.00097493513
0.00053543261
0.00016768599
0.038741415
0.039091675
0.039568297
0.039921638
0.040351566
0.040905045
0.040718753
0.038288464
0.03552943
0.03357558
0.031901652
0.029974473
0.027507246
0.024596595
0.02156783
0.018599889
0.015820497
0.013300195
0.011064901
0.0091150825
0.0074348784
0.0059980621
0.0047753931
0.0037385142
0.0028615256
0.0021214431
0.0014981934
0.00097440719
0.00053514276
0.00016759492
0.038732191
0.039082146
0.039558572
0.039911678
0.040341223
0.040894948
0.040714487
0.038292133
0.035528946
0.033569829
0.031892657
0.029963381
0.027495117
0.024584619
0.021556619
0.018589777
0.015811637
0.013292606
0.011058528
0.0091098245
0.0074306083
0.0059946445
0.0047726992
0.0037364273
0.0028599446
0.002120281
0.001497378
0.00097387884
0.00053485268
0.00016750378
0.038722954
0.039072603
0.039548829
0.039901704
0.040330868
0.040884821
0.040710186
0.038295838
0.035528499
0.03356407
0.031883646
0.029952273
0.027482968
0.024572628
0.021545398
0.018579658
0.015802771
0.013285013
0.011052151
0.0091045637
0.0074263364
0.0059912258
0.004770005
0.0037343407
0.0028583642
0.0021191196
0.0014965633
0.000973351
0.0005345629
0.00016741274
0.038713703
0.039063045
0.039539072
0.039891717
0.040320492
0.040874682
0.040705856
0.038299546
0.035528069
0.033558341
0.031874633
0.029941151
0.027470804
0.024560622
0.021534167
0.018569533
0.015793903
0.013277418
0.011045773
0.0090993016
0.007422063
0.0059878053
0.0047673089
0.0037322521
0.002856782
0.0021179568
0.0014957474
0.0009728224
0.00053427268
0.00016732157
0.038704441
0.039053474
0.039529301
0.039881716
0.040310099
0.040864515
0.040701489
0.03830326
0.035527675
0.033552614
0.031865618
0.02993001
0.027458619
0.024548601
0.021522927
0.018559402
0.015785031
0.013269822
0.011039394
0.0090940386
0.0074177889
0.0059843843
0.0047646124
0.0037301636
0.0028551999
0.0021167941
0.0014949317
0.00097229387
0.00053398252
0.00016723042
0.038695165
0.03904389
0.039519517
0.039871703
0.040299694
0.040854337
0.04069709
0.038307004
0.035527297
0.033546881
0.031856585
0.029918849
0.027446413
0.024536566
0.021511678
0.018549267
0.015776157
0.013262226
0.011033016
0.009088778
0.0074135167
0.0059809647
0.0047619168
0.0037280756
0.0028536177
0.002115631
0.0014941156
0.00097176509
0.0005336922
0.00016713923
0.038685877
0.039034294
0.039509712
0.039861667
0.040289279
0.040844141
0.040692658
0.038310746
0.035526955
0.033541182
0.031847536
0.029907665
0.027434187
0.024524515
0.021500419
0.018539125
0.015767279
0.013254626
0.011026637
0.0090835165
0.0074092438
0.0059775452
0.0047592219
0.003725989
0.0028520367
0.0021144692
0.0014933006
0.00097123702
0.0005334023
0.00016704817
0.038676576
0.039024685
0.039499893
0.039851616
0.040278848
0.040833915
0.040688191
0.038314508
0.035526629
0.033535479
0.031838472
0.029896457
0.027421938
0.02451245
0.021489149
0.018528976
0.015758398
0.013247025
0.011020257
0.009078254
0.0074049699
0.0059741245
0.0047565258
0.0037239011
0.0028504547
0.0021133065
0.0014924849
0.00097070848
0.00053311212
0.00016695701
0.038667264
0.039015064
0.039490061
0.039841546
0.040268389
0.040823676
0.040683692
0.038318283
0.035526338
0.033529773
0.031829416
0.029885227
0.027409669
0.024500372
0.021477869
0.018518822
0.015749512
0.013239421
0.011013874
0.0090729899
0.0074006948
0.0059707032
0.0047538294
0.0037218134
0.002848873
0.0021121443
0.0014916696
0.00097018023
0.00053282212
0.00016686592
0.038657939
0.039005431
0.039480217
0.039831463
0.040257919
0.04081341
0.040679157
0.038322053
0.035526062
0.033524101
0.031820344
0.02987398
0.027397382
0.024488281
0.021466581
0.018508663
0.015740624
0.013231816
0.011007492
0.0090677263
0.0073964197
0.0059672813
0.0047511321
0.0037197243
0.0028472898
0.0021109808
0.0014908533
0.00096965118
0.00053253166
0.00016677468
0.038648602
0.038995786
0.03947036
0.039821368
0.040247438
0.040803134
0.040674591
0.038325858
0.035525821
0.033518422
0.031811253
0.029862719
0.027385073
0.024476175
0.021455283
0.0184985
0.01573173
0.013224209
0.011001107
0.0090624603
0.0073921434
0.005963859
0.0047484349
0.0037176359
0.0028457075
0.0021098182
0.0014900377
0.00096912269
0.00053224153
0.00016668357
0.038639252
0.038986128
0.039460491
0.039811261
0.040236946
0.040792843
0.040669987
0.03832966
0.035525594
0.033512749
0.031802144
0.029851437
0.027372742
0.024464053
0.021443974
0.018488331
0.015722834
0.0132166
0.010994721
0.009057194
0.0073878665
0.0059604361
0.0047457369
0.0037155466
0.0028441243
0.0021086548
0.0014892214
0.00096859372
0.00053195113
0.00016659235
0.038629889
0.038976459
0.03945061
0.039801142
0.040226444
0.04078252
0.04066535
0.038333469
0.035525404
0.033507102
0.03179304
0.029840132
0.027360392
0.024451916
0.021432656
0.018478156
0.015713935
0.013208989
0.010988333
0.0090519268
0.0073835894
0.0059570133
0.0047430396
0.0037134581
0.0028425421
0.0021074924
0.001488406
0.00096806533
0.00053166106
0.00016650125
0.038620514
0.038966777
0.039440716
0.039791011
0.040215922
0.040772185
0.040660681
0.038337301
0.035525232
0.033501446
0.031783927
0.029828806
0.027348025
0.024439765
0.021421328
0.018467976
0.015705035
0.013201378
0.010981947
0.0090466602
0.0073793125
0.0059535903
0.0047403414
0.0037113686
0.0028409586
0.0021063289
0.0014875897
0.00096753626
0.0005313706
0.00016641003
0.038611127
0.038957084
0.03943081
0.039780869
0.040205385
0.040761823
0.040655972
0.038341127
0.035525088
0.033495805
0.031774795
0.029817455
0.027335636
0.024427596
0.021409991
0.018457788
0.015696128
0.013193761
0.010975557
0.0090413901
0.007375033
0.0059501661
0.004737643
0.0037092789
0.0028393754
0.0021051658
0.0014867738
0.0009670075
0.00053108034
0.00016631887
0.038601728
0.03894738
0.039420893
0.039770715
0.040194837
0.040751452
0.040651232
0.038344971
0.035524967
0.033490181
0.031765643
0.029806082
0.027323224
0.02441541
0.021398644
0.018447593
0.015687219
0.013186144
0.010969166
0.0090361196
0.0073707531
0.0059467412
0.0047349438
0.003707188
0.002837791
0.0021040017
0.001485957
0.00096647817
0.00053078978
0.0001662276
0.038592317
0.038937658
0.039410963
0.039760549
0.040184281
0.040741069
0.040646454
0.038348825
0.03552487
0.033484549
0.031756487
0.029794692
0.027310792
0.02440321
0.021387288
0.018437392
0.015678307
0.013178524
0.010962775
0.0090308489