/*--------------------------------*- C++ -*----------------------------------*\
| =========                 |                                                 |
| \\      /  F ield         | OpenFOAM: The Open Source CFD Toolbox           |
|  \\    /   O peration     | Version:  v2012                                 |
|   \\  /    A nd           | Website:  www.openfoam.com                      |
|    \\/     M anipulation  |                                                 |
\*---------------------------------------------------------------------------*/
FoamFile
{
    version     2.0;
    format      ascii;
    class       volScalarField;
    location    "300";
    object      nut;
}
// * * * * * * * * * * * * * * * * * * * * * * * * * * * * * * * * * * * * * //

dimensions      [0 2 -1 0 0 0 0];


internalField   nonuniform List<scalar> 
24000
(
4.1835362e-05
1.1205916e-05
1.2422994e-05
1.2218869e-05
6.9034598e-06
3.6376132e-06
2.4214097e-06
3.2559016e-06
3.8607263e-06
3.6463547e-06
3.0942361e-06
2.1046649e-06
1.040943e-06
7.2760001e-07
5.089103e-07
3.4283424e-07
2.1837566e-07
1.2627226e-07
5.6205163e-08
2.1397223e-08
7.1486453e-09
2.1420675e-09
5.8074924e-10
1.4123309e-10
2.9971676e-11
5.3109857e-12
7.9074744e-13
1.8201872e-13
1.4587556e-13
1.5576302e-13
4.183605e-05
1.1092849e-05
1.2083066e-05
1.1617608e-05
6.5135769e-06
3.4745337e-06
2.3868763e-06
3.2256936e-06
3.8415257e-06
3.648342e-06
3.1021102e-06
2.1202945e-06
1.0452465e-06
7.2922088e-07
5.113038e-07
3.4557328e-07
2.2081789e-07
1.2784803e-07
5.698512e-08
2.1703856e-08
7.2513865e-09
2.1730185e-09
5.8926639e-10
1.4334997e-10
3.0438811e-11
5.4066884e-12
8.1813966e-13
2.0120527e-13
1.6624674e-13
1.7742843e-13
4.1836182e-05
1.1128078e-05
1.2291504e-05
1.2133603e-05
6.8323873e-06
3.6127396e-06
2.4297576e-06
3.2303383e-06
3.8300948e-06
3.6356294e-06
3.0851967e-06
2.1260836e-06
1.0471806e-06
7.3117267e-07
5.1230898e-07
3.463362e-07
2.214332e-07
1.2896754e-07
5.7661412e-08
2.2015185e-08
7.3663919e-09
2.2089605e-09
5.9912953e-10
1.4574791e-10
3.0941498e-11
5.4886393e-12
8.2230122e-13
1.941279e-13
1.5740787e-13
1.6799896e-13
4.183637e-05
1.1148952e-05
1.2378214e-05
1.2313069e-05
6.9205685e-06
3.6406699e-06
2.4303971e-06
3.2202735e-06
3.8189873e-06
3.6256443e-06
3.0741549e-06
2.1265427e-06
1.0474701e-06
7.3211299e-07
5.1275273e-07
3.4650521e-07
2.214084e-07
1.2868425e-07
5.7446174e-08
2.1902053e-08
7.3211239e-09
2.1940922e-09
5.9492076e-10
1.447049e-10
3.0719903e-11
5.4515913e-12
8.195425e-13
1.9627431e-13
1.6023373e-13
1.7102216e-13
4.1836641e-05
1.1182618e-05
1.246663e-05
1.2457133e-05
6.9779802e-06
3.6535216e-06
2.4306891e-06
3.2141961e-06
3.8125638e-06
3.6206276e-06
3.0704227e-06
2.1261809e-06
1.0475474e-06
7.3199705e-07
5.1263586e-07
3.4646952e-07
2.2141258e-07
1.2877464e-07
5.7506201e-08
2.1930629e-08
7.3317241e-09
2.1973772e-09
5.9581124e-10
1.449189e-10
3.0764361e-11
5.4588061e-12
8.199238e-13
1.9567229e-13
1.5947658e-13
1.7021108e-13
4.1836979e-05
1.1211126e-05
1.2524973e-05
1.2536672e-05
7.0054055e-06
3.6603964e-06
2.4305782e-06
3.2083555e-06
3.8071522e-06
3.6161753e-06
3.0667216e-06
2.1249107e-06
1.0472802e-06
7.3193634e-07
5.1254463e-07
3.4638855e-07
2.2133705e-07
1.2868505e-07
5.7451662e-08
2.1905062e-08
7.322056e-09
2.1942841e-09
5.9494632e-10
1.4470591e-10
3.071909e-11
5.4509341e-12
8.189288e-13
1.9562018e-13
1.5950566e-13
1.7024323e-13
4.1837372e-05
1.1234356e-05
1.2564367e-05
1.2585454e-05
7.0229575e-06
3.6662583e-06
2.4306104e-06
3.2032614e-06
3.8021755e-06
3.6121864e-06
3.0636984e-06
2.1232374e-06
1.0468675e-06
7.317137e-07
5.1239116e-07
3.4627559e-07
2.2124899e-07
1.286051e-07
5.7408179e-08
2.1886292e-08
7.315327e-09
2.1921984e-09
5.9437371e-10
1.4456637e-10
3.068954e-11
5.4456976e-12
8.1812732e-13
1.9541077e-13
1.5932761e-13
1.7005289e-13
4.1837805e-05
1.1252375e-05
1.2590325e-05
1.261724e-05
7.0364183e-06
3.6719321e-06
2.4307352e-06
3.1984126e-06
3.7972296e-06
3.6082592e-06
3.0609121e-06
2.1213482e-06
1.0463793e-06
7.3146417e-07
5.1223024e-07
3.4615398e-07
2.2115106e-07
1.2850974e-07
5.7355126e-08
2.1863003e-08
7.3068844e-09
2.189564e-09
5.9364767e-10
1.4438909e-10
3.0651984e-11
5.4390819e-12
8.1716454e-13
1.9520795e-13
1.5917223e-13
1.6988697e-13
4.1838268e-05
1.1266432e-05
1.2608018e-05
1.2640628e-05
7.0484345e-06
3.6776549e-06
2.430966e-06
3.1936699e-06
3.7923174e-06
3.6044039e-06
3.0582475e-06
2.1193514e-06
1.0458571e-06
7.3119308e-07
5.1206191e-07
3.4602693e-07
2.2104907e-07
1.2841107e-07
5.7300399e-08
2.1839058e-08
7.2982259e-09
2.186867e-09
5.9290527e-10
1.4420797e-10
3.0613636e-11
5.4323238e-12
8.161738e-13
1.9499127e-13
1.5900262e-13
1.6970566e-13
4.1838753e-05
1.1277667e-05
1.2620676e-05
1.2659728e-05
7.0599125e-06
3.6834344e-06
2.4312772e-06
3.1889711e-06
3.7874139e-06
3.600578e-06
3.0556246e-06
2.1172957e-06
1.0453192e-06
7.3091641e-07
5.1189332e-07
3.4589919e-07
2.20946e-07
1.2831036e-07
5.7244411e-08
2.1814533e-08
7.2893538e-09
2.1841031e-09
5.9214449e-10
1.4402239e-10
3.0574351e-11
5.4254042e-12
8.1516195e-13
1.9477232e-13
1.5883212e-13
1.6952333e-13
4.1839257e-05
1.1286987e-05
1.2630307e-05
1.2676582e-05
7.0711858e-06
3.6892703e-06
2.4316551e-06
3.1842946e-06
3.7825089e-06
3.5967622e-06
3.0530183e-06
2.1152069e-06
1.0447756e-06
7.3063898e-07
5.1172657e-07
3.4577263e-07
2.2084349e-07
1.2820944e-07
5.7188208e-08
2.1789901e-08
7.2804425e-09
2.1813275e-09
5.9138071e-10
1.4383614e-10
3.0534938e-11
5.4184641e-12
8.1414727e-13
1.9455257e-13
1.586608e-13
1.6934006e-13
4.1839775e-05
1.1295031e-05
1.2638101e-05
1.2692211e-05
7.0823727e-06
3.6951514e-06
2.4320913e-06
3.1796296e-06
3.777597e-06
3.5929441e-06
3.0504124e-06
2.1130977e-06
1.0442313e-06
7.3036419e-07
5.1156318e-07
3.4564845e-07
2.2074244e-07
1.2810905e-07
5.7132179e-08
2.1765324e-08
7.2715496e-09
2.178558e-09
5.9061878e-10
1.4365038e-10
3.0495642e-11
5.4115466e-12
8.1313618e-13
1.9433359e-13
1.5849003e-13
1.691573e-13
4.1840306e-05
1.130223e-05
1.264475e-05
1.2707121e-05
7.0935151e-06
3.7010675e-06
2.4325804e-06
3.1749693e-06
3.7726745e-06
3.5891164e-06
3.0477981e-06
2.1109745e-06
1.0436889e-06
7.3009353e-07
5.1140384e-07
3.4552722e-07
2.2064333e-07
1.2800961e-07
5.707656e-08
2.1740903e-08
7.2627102e-09
2.1758054e-09
5.8986169e-10
1.4346588e-10
3.0456626e-11
5.4046812e-12
8.1213312e-13
1.9411638e-13
1.5832055e-13
1.6897587e-13
4.1840849e-05
1.1308864e-05
1.2650654e-05
1.2721563e-05
7.1046258e-06
3.7070128e-06
2.4331187e-06
3.1703103e-06
3.767738e-06
3.5852743e-06
3.0451709e-06
2.1088408e-06
1.0431497e-06
7.2982778e-07
5.1124894e-07
3.4540934e-07
2.2054649e-07
1.2791147e-07
5.7021529e-08
2.1716712e-08
7.2539502e-09
2.1730771e-09
5.8911134e-10
1.4328304e-10
3.0417967e-11
5.3978797e-12
8.1113957e-13
1.9390119e-13
1.5815255e-13
1.6879596e-13
4.1841403e-05
1.1315114e-05
1.2656056e-05
1.2735689e-05
7.1157095e-06
3.7129824e-06
2.4337045e-06
3.1656515e-06
3.7627874e-06
3.5814157e-06
3.0425267e-06
2.106698e-06
1.0426144e-06
7.2956733e-07
5.1109865e-07
3.4529495e-07
2.2045204e-07
1.2781474e-07
5.6967157e-08
2.1692783e-08
7.2452811e-09
2.1703769e-09
5.8836879e-10
1.4310214e-10
3.0379728e-11
5.3911539e-12
8.1015722e-13
1.9368827e-13
1.5798621e-13
1.6861778e-13
4.1841968e-05
1.1321094e-05
1.2661097e-05
1.274958e-05
7.1267647e-06
3.7189742e-06
2.4343368e-06
3.1609925e-06
3.7578233e-06
3.5775404e-06
3.0398632e-06
2.1045463e-06
1.0420832e-06
7.2931239e-07
5.1095304e-07
3.4518407e-07
2.2036001e-07
1.2771949e-07
5.6913491e-08
2.166914e-08
7.2367121e-09
2.1677077e-09
5.8763485e-10
1.4292337e-10
3.0341946e-11
5.3845095e-12
8.0918647e-13
1.9347738e-13
1.5782118e-13
1.6844096e-13
4.1842543e-05
1.1326877e-05
1.2665849e-05
1.2763265e-05
7.1377856e-06
3.7249873e-06
2.4350141e-06
3.1563331e-06
3.7528447e-06
3.5736472e-06
3.0371796e-06
2.1023853e-06
1.0415558e-06
7.2906295e-07
5.1081205e-07
3.4507665e-07
2.2027034e-07
1.2762569e-07
5.6860506e-08
2.1645771e-08
7.2282388e-09
2.1650683e-09
5.8690928e-10
1.4274669e-10
3.030462e-11
5.3779471e-12
8.0822751e-13
1.9326851e-13
1.5765744e-13
1.6826547e-13
4.1843128e-05
1.1332506e-05
1.2670362e-05
1.2776783e-05
7.1487769e-06
3.7310199e-06
2.4357355e-06
3.1516747e-06
3.7478489e-06
3.5697323e-06
3.0344749e-06
2.1002148e-06
1.0410323e-06
7.2881897e-07
5.1067568e-07
3.4497272e-07
2.2018306e-07
1.2753335e-07
5.6808221e-08
2.1622684e-08
7.2198636e-09
2.1624592e-09
5.8619201e-10
1.4257205e-10
3.0267729e-11
5.3714615e-12
8.0727929e-13
1.9306135e-13
1.5749474e-13
1.6809105e-13
4.1843722e-05
1.1338013e-05
1.267468e-05
1.2790168e-05
7.1597494e-06
3.7370729e-06
2.4365004e-06
3.1470186e-06
3.7428344e-06
3.5657929e-06
3.0317484e-06
2.0980344e-06
1.0405125e-06
7.2858042e-07
5.1054387e-07
3.4487219e-07
2.2009811e-07
1.2744244e-07
5.6756609e-08
2.1599864e-08
7.2115813e-09
2.1598785e-09
5.8548262e-10
1.4239936e-10
3.0231256e-11
5.3650506e-12
8.0634163e-13
1.9285588e-13
1.5733305e-13
1.679177e-13
4.1844324e-05
1.1343422e-05
1.2678828e-05
1.280343e-05
7.1707037e-06
3.7431442e-06
2.4373087e-06
3.1423651e-06
3.7378002e-06
3.5618293e-06
3.0290003e-06
2.0958434e-06
1.0399962e-06
7.2834726e-07
5.1041659e-07
3.4477504e-07
2.2001545e-07
1.2735295e-07
5.6705674e-08
2.1577317e-08
7.2033934e-09
2.1573268e-09
5.8478118e-10
1.4222861e-10
3.0195195e-11
5.3587121e-12
8.0541388e-13
1.9265178e-13
1.5717209e-13
1.677451e-13
4.1844934e-05
1.1348757e-05
1.2682826e-05
1.2816567e-05
7.1816365e-06
3.7492312e-06
2.438159e-06
3.137714e-06
3.7327463e-06
3.5578417e-06
3.0262313e-06
2.0936411e-06
1.0394832e-06
7.2811934e-07
5.1029372e-07
3.4468117e-07
2.1993502e-07
1.2726484e-07
5.6655383e-08
2.1555028e-08
7.1952949e-09
2.1548027e-09
5.8408738e-10
1.4205976e-10
3.0159545e-11
5.3524468e-12
8.0449637e-13
1.9244918e-13
1.5701197e-13
1.6757336e-13
4.1845551e-05
1.135403e-05
1.2686684e-05
1.2829576e-05
7.1925449e-06
3.7553326e-06
2.4390514e-06
3.1330662e-06
3.7276738e-06
3.5538289e-06
3.0234405e-06
2.0914273e-06
1.0389734e-06
7.2789663e-07
5.1017528e-07
3.445906e-07
2.1985684e-07
1.2717811e-07
5.6605756e-08
2.1533006e-08
7.1872895e-09
2.1523072e-09
5.8340147e-10
1.4189283e-10
3.0124305e-11
5.3462534e-12
8.0358855e-13
1.9224782e-13
1.5685241e-13
1.6740221e-13
4.1846173e-05
1.1359237e-05
1.2690412e-05
1.2842466e-05
7.2034273e-06
3.761447e-06
2.4399848e-06
3.1284223e-06
3.7225827e-06
3.5497905e-06
3.0206275e-06
2.0892016e-06
1.0384668e-06
7.2767908e-07
5.1006119e-07
3.4450328e-07
2.1978086e-07
1.2709273e-07
5.6556756e-08
2.1511233e-08
7.1793703e-09
2.1498382e-09
5.8272285e-10
1.4172771e-10
3.0089453e-11
5.3401291e-12
8.0269033e-13
1.920478e-13
1.5669356e-13
1.6723179e-13
4.1846799e-05
1.1364386e-05
1.2694016e-05
1.2855236e-05
7.2142853e-06
3.7675731e-06
2.4409585e-06
3.1237823e-06
3.717473e-06
3.5457271e-06
3.0177934e-06
2.0869639e-06
1.0379632e-06
7.2746662e-07
5.0995141e-07
3.4441917e-07
2.1970707e-07
1.270087e-07
5.6508402e-08
2.1489718e-08
7.17154e-09
2.1473963e-09
5.8205167e-10
1.4156441e-10
3.0054986e-11
5.3340723e-12
8.0180116e-13
1.9184885e-13
1.5653516e-13
1.6706184e-13
4.1847427e-05
1.1369495e-05
1.2697507e-05
1.2867877e-05
7.225123e-06
3.773711e-06
2.4419718e-06
3.1191472e-06
3.7123465e-06
3.5416394e-06
3.014938e-06
2.0847138e-06
1.0374626e-06
7.2725915e-07
5.0984585e-07
3.4433816e-07
2.1963537e-07
1.2692597e-07
5.6460655e-08
2.1468444e-08
7.1637921e-09
2.1449795e-09
5.8138736e-10
1.4140279e-10
3.002088e-11
5.3280795e-12
8.0092077e-13
1.9165103e-13
1.5637728e-13
1.6689243e-13
4.1848056e-05
1.1374563e-05
1.2700892e-05
1.2880401e-05
7.2359386e-06
3.7798602e-06
2.4430238e-06
3.1145169e-06
3.7072034e-06
3.537527e-06
3.0120606e-06
2.0824512e-06
1.0369648e-06
7.2705672e-07
5.0974452e-07
3.4426028e-07
2.1956579e-07
1.2684456e-07
5.6413538e-08
2.1447424e-08
7.156133e-09
2.14259e-09
5.8073053e-10
1.41243e-10
2.9987161e-11
5.3221538e-12
8.0004925e-13
1.9145418e-13
1.5621973e-13
1.6672336e-13
4.1848682e-05
1.1379586e-05
1.2704176e-05
1.289283e-05
7.2467248e-06
3.7860175e-06
2.4441137e-06
3.1098916e-06
3.7020421e-06
3.533389e-06
3.0091615e-06
2.0801761e-06
1.03647e-06
7.268593e-07
5.096474e-07
3.4418547e-07
2.1949827e-07
1.2676441e-07
5.6367013e-08
2.142664e-08
7.1485555e-09
2.1402256e-09
5.8008068e-10
1.4108494e-10
2.9953814e-11
5.3162947e-12
7.9918683e-13
1.9125845e-13
1.5606269e-13
1.6655481e-13
4.1849304e-05
1.1384565e-05
1.2707365e-05
1.2905163e-05
7.2574848e-06
3.7921846e-06
2.4452409e-06
3.1052718e-06
3.696863e-06
3.5292258e-06
3.0062408e-06
2.0778886e-06
1.0359782e-06
7.2666687e-07
5.0955446e-07
3.4411372e-07
2.1943281e-07
1.2668552e-07
5.6321086e-08
2.1406096e-08
7.1410611e-09
2.1378867e-09
5.7943782e-10
1.4092859e-10
2.9920833e-11
5.3104995e-12
7.9833277e-13
1.9106344e-13
1.5590572e-13
1.6638634e-13
4.1849917e-05
1.1389505e-05
1.2710467e-05
1.2917408e-05
7.268226e-06
3.7983605e-06
2.4464044e-06
3.1006581e-06
3.6916668e-06
3.5250385e-06
3.0032986e-06
2.0755886e-06
1.0354893e-06
7.2647943e-07
5.0946565e-07
3.4404493e-07
2.1936931e-07
1.2660782e-07
5.6275711e-08
2.1385767e-08
7.1336398e-09
2.1355699e-09
5.7880102e-10
1.4077373e-10
2.9888171e-11
5.3047608e-12
7.9748632e-13
1.9086924e-13
1.5574902e-13
1.6621813e-13
4.185052e-05
1.1394409e-05
1.2713491e-05
1.2929576e-05
7.2789467e-06
3.8045428e-06
2.4476028e-06
3.0960502e-06
3.686453e-06
3.5208271e-06
3.0003356e-06
2.0732761e-06
1.0350035e-06
7.2629703e-07
5.09381e-07
3.4397916e-07
2.1930782e-07
1.2653137e-07
5.6230923e-08
2.1365674e-08
7.1263e-09
2.1332779e-09
5.7817094e-10
1.4062049e-10
2.9855847e-11
5.2990804e-12
7.9664738e-13
1.9067571e-13
1.5559243e-13
1.6605003e-13
4.1851109e-05
1.1399284e-05
1.2716443e-05
1.2941664e-05
7.2896419e-06
3.8107329e-06
2.4488359e-06
3.0914481e-06
3.6812207e-06
3.5165904e-06
2.9973522e-06
2.0709514e-06
1.0345207e-06
7.2611967e-07
5.093005e-07
3.4391638e-07
2.1924831e-07
1.264561e-07
5.6186687e-08
2.13458e-08
7.1190356e-09
2.131009e-09
5.7754724e-10
1.4046883e-10
2.9823863e-11
5.2934601e-12
7.9581656e-13
1.9048308e-13
1.5543616e-13
1.6588226e-13
4.1851679e-05
1.1404133e-05
1.2719331e-05
1.2953668e-05
7.3003087e-06
3.8169274e-06
2.4501027e-06
3.0868521e-06
3.6759714e-06
3.5123297e-06
2.9943487e-06
2.0686147e-06
1.0340412e-06
7.2594743e-07
5.0922419e-07
3.4385661e-07
2.1919079e-07
1.2638204e-07
5.6143019e-08
2.1326152e-08
7.1118499e-09
2.1287643e-09
5.7693021e-10
1.4031881e-10
2.9792228e-11
5.2879009e-12
7.9499364e-13
1.9029106e-13
1.5527989e-13
1.6571449e-13
4.1852227e-05
1.1408964e-05
1.2722167e-05
1.2965602e-05
7.3109534e-06
3.8231281e-06
2.4514023e-06
3.0822621e-06
3.6707059e-06
3.5080462e-06
2.9913261e-06
2.0662662e-06
1.0335649e-06
7.2578028e-07
5.0915201e-07
3.4379977e-07
2.191352e-07
1.2630914e-07
5.609988e-08
2.130671e-08
7.1047336e-09
2.1265406e-09
5.7631892e-10
1.401702e-10
2.9760897e-11
5.2823959e-12
7.9417801e-13
1.9009979e-13
1.5512384e-13
1.6554694e-13
4.1852749e-05
1.1413779e-05
1.2724956e-05
1.297747e-05
7.3215797e-06
3.8293333e-06
2.4527336e-06
3.0776777e-06
3.6654252e-06
3.5037402e-06
2.9882849e-06
2.063906e-06
1.0330921e-06
7.256183e-07
5.0908403e-07
3.4374596e-07
2.1908161e-07
1.2623746e-07
5.6057317e-08
2.1287498e-08
7.0976963e-09
2.1243409e-09
5.757141e-10
1.4002314e-10
2.972989e-11
5.2769464e-12
7.933695e-13
1.8990912e-13
1.5496785e-13
1.6537944e-13
4.1853239e-05
1.1418581e-05
1.2727696e-05
1.2989278e-05
7.3321836e-06
3.8355421e-06
2.4540956e-06
3.0730984e-06
3.66013e-06
3.499411e-06
2.9852253e-06
2.0615343e-06
1.0326229e-06
7.2546157e-07
5.0902028e-07
3.4369513e-07
2.1902997e-07
1.2616694e-07
5.6015291e-08
2.1268496e-08
7.0907309e-09
2.1221629e-09
5.7511524e-10
1.3987754e-10
2.9699194e-11
5.2715515e-12
7.9256833e-13
1.8971927e-13
1.5481217e-13
1.6521227e-13
4.1853693e-05
1.1423371e-05
1.273038e-05
1.300102e-05
7.3427667e-06
3.8417581e-06
2.4554884e-06
3.0685244e-06
3.6548196e-06
3.4950588e-06
2.9821475e-06
2.0591518e-06
1.0321573e-06
7.2531017e-07
5.089608e-07
3.4364735e-07
2.1898033e-07
1.2609762e-07
5.5973828e-08
2.1249719e-08
7.0838432e-09
2.1200087e-09
5.7452289e-10
1.3973353e-10
2.9668834e-11
5.266215e-12
7.9177461e-13
1.8952994e-13
1.5465642e-13
1.6504502e-13
4.1854106e-05
1.142815e-05
1.2733013e-05
1.3012698e-05
7.3533325e-06
3.847978e-06
2.4569108e-06
3.0639559e-06
3.6494948e-06
3.4906853e-06
2.9790521e-06
2.0567587e-06
1.0316955e-06
7.2516406e-07
5.0890555e-07
3.4360253e-07
2.1893262e-07
1.2602946e-07
5.593289e-08
2.1231145e-08
7.0770241e-09
2.1178753e-09
5.7393622e-10
1.3959093e-10
2.9638775e-11
5.2609322e-12
7.9098814e-13
1.8934137e-13
1.5450091e-13
1.6487802e-13
4.1854472e-05
1.1432923e-05
1.2735606e-05
1.3024336e-05
7.3638896e-06
3.8542041e-06
2.4583625e-06
3.0593926e-06
3.6441552e-06
3.4862905e-06
2.9759386e-06
2.0543554e-06
1.0312377e-06
7.250234e-07
5.0885462e-07
3.4356078e-07
2.1888692e-07
1.2596251e-07
5.5892521e-08
2.1212798e-08
7.0702833e-09
2.1157656e-09
5.7335603e-10
1.3944988e-10
2.9609044e-11
5.2557056e-12
7.9020883e-13
1.8915334e-13
1.543454e-13
1.64711e-13
4.1854785e-05
1.1437692e-05
1.2738165e-05
1.3035934e-05
7.3744392e-06
3.8604377e-06
2.4598419e-06
3.0548335e-06
3.6388001e-06
3.4818734e-06
2.9728065e-06
2.0519419e-06
1.0307839e-06
7.2488825e-07
5.0880804e-07
3.4352208e-07
2.1884319e-07
1.2589671e-07
5.5852675e-08
2.1194654e-08
7.0636112e-09
2.1136768e-09
5.7278149e-10
1.3931022e-10
2.9579608e-11
5.2505312e-12
7.8943656e-13
1.889661e-13
1.5419017e-13
1.6454427e-13
4.185504e-05
1.1442457e-05
1.2740694e-05
1.3047488e-05
7.3849736e-06
3.8666735e-06
2.461349e-06
3.0502788e-06
3.6334286e-06
3.4774338e-06
2.9696564e-06
2.0495191e-06
1.0303344e-06
7.2475864e-07
5.0876586e-07
3.4348652e-07
2.1880153e-07
1.2583214e-07
5.5813399e-08
2.1176735e-08
7.0570158e-09
2.1116111e-09
5.7221325e-10
1.3917208e-10
2.9550491e-11
5.2454119e-12
7.8867131e-13
1.8877939e-13
1.5403495e-13
1.6437755e-13
4.185523e-05
1.1447213e-05
1.2743199e-05
1.3059009e-05
7.3954949e-06
3.8729141e-06
2.4628831e-06
3.0457295e-06
3.6280416e-06
3.4729734e-06
2.9664892e-06
2.0470875e-06
1.0298893e-06
7.2463453e-07
5.0872802e-07
3.4345401e-07
2.1876186e-07
1.2576878e-07
5.5774674e-08
2.1159027e-08
7.0504917e-09
2.1095668e-09
5.716508e-10
1.3903535e-10
2.9521675e-11
5.2403456e-12
7.8791327e-13
1.8859356e-13
1.538801e-13
1.6421123e-13
4.1855349e-05
1.1451959e-05
1.2745687e-05
1.3070506e-05
7.4060127e-06
3.8791635e-06
2.4644439e-06
3.0411839e-06
3.6226389e-06
3.4684929e-06
2.9633048e-06
2.0446472e-06
1.0294487e-06
7.245161e-07
5.0869463e-07
3.4342464e-07
2.1872426e-07
1.2570668e-07
5.5736549e-08
2.1141562e-08
7.0440512e-09
2.107548e-09
5.7109529e-10
1.389003e-10
2.949321e-11
5.2353395e-12
7.8716288e-13
1.8840831e-13
1.5372526e-13
1.6404489e-13
4.1855391e-05
1.1456709e-05
1.2748161e-05
1.308198e-05
7.416528e-06
3.8854172e-06
2.4660309e-06
3.0366424e-06
3.6172204e-06
3.4639908e-06
2.9601023e-06
2.0421986e-06
1.0290127e-06
7.2440341e-07
5.0866568e-07
3.4339836e-07
2.1868865e-07
1.2564575e-07
5.5698955e-08
2.1124302e-08
7.0376806e-09
2.1055504e-09
5.7054559e-10
1.3876667e-10
2.9465051e-11
5.2303877e-12
7.8641978e-13
1.8822383e-13
1.5357065e-13
1.638788e-13
4.1855349e-05
1.1461472e-05
1.2750627e-05
1.3093415e-05
7.4270342e-06
3.8916751e-06
2.4676429e-06
3.0321043e-06
3.6117889e-06
3.4594673e-06
2.9568808e-06
2.0397423e-06
1.0285815e-06
7.2429648e-07
5.0864123e-07
3.4337525e-07
2.186551e-07
1.2558604e-07
5.5661923e-08
2.1107263e-08
7.0313857e-09
2.1035758e-09
5.7000212e-10
1.3863456e-10
2.9437211e-11
5.225491e-12
7.856837e-13
1.8803983e-13
1.5341598e-13
1.6371264e-13
4.1855215e-05
1.1466244e-05
1.2753094e-05
1.3104838e-05
7.4375405e-06
3.8979465e-06
2.4692811e-06
3.0275689e-06
3.6063434e-06
3.4549232e-06
2.9536405e-06
2.0372786e-06
1.0281551e-06
7.2419528e-07
5.0862123e-07
3.4335524e-07
2.1862357e-07
1.2552753e-07
5.562543e-08
2.1090431e-08
7.0251594e-09
2.1016216e-09
5.6946418e-10
1.3850379e-10
2.9409656e-11
5.2206447e-12
7.8495443e-13
1.8785663e-13
1.5326164e-13
1.6354682e-13
4.1854983e-05
1.1471022e-05
1.2755565e-05
1.3116251e-05
7.4480541e-06
3.9042264e-06
2.4709438e-06
3.0230364e-06
3.6008849e-06
3.4503598e-06
2.9503818e-06
2.0348076e-06
1.0277338e-06
7.2409997e-07
5.0860577e-07
3.4333844e-07
2.1859412e-07
1.2547028e-07
5.5589535e-08
2.1073837e-08
7.0190152e-09
2.0996922e-09
5.6893294e-10
1.3837463e-10
2.9382434e-11
5.2158547e-12
7.8423217e-13
1.8767386e-13
1.5310718e-13
1.6338087e-13
4.1854645e-05
1.1475822e-05
1.2758037e-05
1.3127628e-05
7.4585656e-06
3.9105067e-06
2.4726305e-06
3.0185069e-06
3.5954134e-06
3.4457761e-06
2.9471043e-06
2.0323294e-06
1.0273174e-06
7.2401057e-07
5.0859487e-07
3.4332481e-07
2.1856673e-07
1.2541422e-07
5.5554177e-08
2.1057451e-08
7.0129416e-09
2.0977842e-09
5.6840755e-10
1.382469e-10
2.9355518e-11
5.2111187e-12
7.8351717e-13
1.874919e-13
1.5295301e-13
1.6321521e-13
4.1854194e-05
1.148065e-05
1.2760509e-05
1.3138967e-05
7.4690694e-06
3.9167932e-06
2.4743409e-06
3.0139801e-06
3.5899281e-06
3.4411717e-06
2.9438089e-06
2.0298441e-06
1.0269062e-06
7.2392711e-07
5.0858858e-07
3.4331444e-07
2.1854146e-07
1.2535942e-07
5.5519398e-08
2.1041294e-08
7.0069461e-09
2.0959001e-09
5.6788865e-10
1.3812075e-10
2.9328937e-11
5.2064409e-12
7.828096e-13
1.8731046e-13
1.527988e-13
1.6304951e-13
4.1853622e-05
1.1485502e-05
1.2762987e-05
1.3150294e-05
7.4795757e-06
3.9230943e-06
2.4760756e-06
3.0094546e-06
3.5844286e-06
3.4365477e-06
2.940497e-06
2.0273518e-06
1.0265004e-06
7.238495e-07
5.085868e-07
3.4330722e-07
2.1851825e-07
1.2530583e-07
5.5485169e-08
2.1025345e-08
7.0010203e-09
2.0940366e-09
5.6737538e-10
1.3799597e-10
2.9302649e-11
5.2018148e-12
7.8210905e-13
1.8712983e-13
1.526449e-13
1.6288415e-13
4.1852922e-05
1.1490375e-05
1.2765481e-05
1.3161628e-05
7.4900935e-06
3.9294073e-06
2.4778354e-06
3.0049319e-06
3.5789141e-06
3.4319048e-06
2.9371694e-06
2.0248524e-06
1.0260998e-06
7.2377793e-07
5.0858965e-07
3.4330327e-07
2.1849717e-07
1.2525356e-07
5.5451554e-08
2.1009642e-08
6.9951784e-09
2.0921986e-09
5.6686894e-10
1.3787283e-10
2.9276699e-11
5.1972464e-12
7.8141576e-13
1.8694975e-13
1.52491e-13
1.6271876e-13
4.1852086e-05
1.1495267e-05
1.2767993e-05
1.317296e-05
7.5006124e-06
3.9357224e-06
2.4796176e-06
3.0004123e-06
3.5733852e-06
3.427243e-06
2.9338263e-06
2.0223454e-06
1.0257046e-06
7.2371244e-07
5.0859713e-07
3.4330252e-07
2.1847817e-07
1.2520248e-07
5.5418486e-08
2.099415e-08
6.9894081e-09
2.0903821e-09
5.6636836e-10
1.3775112e-10
2.9251052e-11
5.1927311e-12
7.807296e-13
1.8677048e-13
1.523374e-13
1.6255368e-13
4.1851106e-05
1.1500181e-05
1.2770518e-05
1.3184292e-05
7.5111297e-06
3.9420464e-06
2.4814236e-06
2.9958951e-06
3.567839e-06
3.4225606e-06
2.9304679e-06
2.0198311e-06
1.0253148e-06
7.2365305e-07
5.0860926e-07
3.4330505e-07
2.1846132e-07
1.2515268e-07
5.5386006e-08
2.097889e-08
6.9837174e-09
2.0885898e-09
5.6587436e-10
1.37631e-10
2.922574e-11
5.1882735e-12
7.8005072e-13
1.8659166e-13
1.521837e-13
1.6238849e-13
4.1849975e-05
1.1505115e-05
1.2773056e-05
1.3195634e-05
7.5216612e-06
3.9483858e-06
2.4832523e-06
2.9913797e-06
3.5622758e-06
3.4178586e-06
2.9270956e-06
2.0173097e-06
1.0249307e-06
7.2359966e-07
5.0862597e-07
3.4331077e-07
2.1844653e-07
1.2510411e-07
5.5354079e-08
2.0963842e-08
6.9780976e-09
2.0868187e-09
5.6538614e-10
1.3751229e-10
2.9200732e-11
5.1838696e-12
7.793791e-13
1.8641367e-13
1.520303e-13
1.6222362e-13
4.1848684e-05
1.1510069e-05
1.2775607e-05
1.3206996e-05
7.5322176e-06
3.9547399e-06
2.4851038e-06
2.9868648e-06
3.5566999e-06
3.4131394e-06
2.9237106e-06
2.0147813e-06
1.0245523e-06
7.2355244e-07
5.0864733e-07
3.4331977e-07
2.1843389e-07
1.2505684e-07
5.5322768e-08
2.094904e-08
6.9725624e-09
2.0850734e-09
5.6490488e-10
1.3739527e-10
2.9176073e-11
5.1795255e-12
7.7871502e-13
1.862362e-13
1.5187684e-13
1.6205867e-13
4.1847225e-05
1.1515044e-05
1.2778167e-05
1.3218374e-05
7.5427903e-06
3.9611058e-06
2.4869793e-06
2.9823515e-06
3.5511102e-06
3.4084019e-06
2.9203136e-06
2.0122456e-06
1.0241795e-06
7.2351146e-07
5.0867337e-07
3.4333199e-07
2.1842333e-07
1.2501077e-07
5.5291997e-08
2.0934446e-08
6.9670974e-09
2.0833492e-09
5.6442941e-10
1.3727965e-10
2.9151717e-11
5.1752348e-12
7.7805809e-13
1.8605949e-13
1.5172363e-13
1.6189397e-13
4.1845591e-05
1.152004e-05
1.2780734e-05
1.3229751e-05
7.5533713e-06
3.9674809e-06
2.488877e-06
2.9778395e-06
3.5455078e-06
3.4036456e-06
2.9169062e-06
2.0097029e-06
1.0238125e-06
7.234767e-07
5.087041e-07
3.4334752e-07
2.1841493e-07
1.2496597e-07
5.5261809e-08
2.0920081e-08
6.9617105e-09
2.0816487e-09
5.6396034e-10
1.3716559e-10
2.9127686e-11
5.1710002e-12
7.7740827e-13
1.8588324e-13
1.5157033e-13
1.6172919e-13
4.1843773e-05
1.1525051e-05
1.2783311e-05
1.3241136e-05
7.563969e-06
3.9738712e-06
2.4907991e-06
2.9733291e-06
3.539891e-06
3.3988707e-06
2.9134871e-06
2.0071534e-06
1.0234515e-06
7.2344805e-07
5.0873943e-07
3.4336627e-07
2.1840863e-07
1.2492242e-07
5.5232185e-08
2.090593e-08
6.956395e-09
2.0799694e-09
5.6349701e-10
1.3705292e-10
2.910395e-11
5.1668174e-12
7.7676546e-13
1.8570786e-13
1.5141742e-13
1.6156482e-13
4.1841764e-05
1.1530069e-05
1.2785897e-05
1.3252534e-05
7.574586e-06
3.9802746e-06
2.4927431e-06
2.96882e-06
3.5342614e-06
3.3940791e-06
2.9100575e-06
2.0045973e-06
1.0230965e-06
7.2342566e-07
5.0877946e-07
3.4338832e-07
2.1840451e-07
1.2488021e-07
5.5203196e-08
2.0892035e-08
6.9511676e-09
2.0783169e-09
5.6304093e-10
1.36942e-10
2.9080578e-11
5.1626966e-12
7.7613048e-13
1.8553308e-13
1.5126452e-13
1.6140044e-13
4.1839555e-05
1.1535095e-05
1.2788491e-05
1.3263941e-05
7.5852153e-06
3.9866959e-06
2.4947102e-06
2.9643112e-06
3.5286184e-06
3.3892696e-06
2.9066157e-06
2.0020346e-06
1.0227475e-06
7.2340963e-07
5.0882418e-07
3.4341361e-07
2.1840247e-07
1.2483922e-07
5.5174762e-08
2.0878355e-08
6.9460132e-09
2.0766865e-09
5.6259092e-10
1.3683257e-10
2.9057525e-11
5.1586323e-12
7.7550308e-13
1.853591e-13
1.5111187e-13
1.6123631e-13
4.183714e-05
1.1540135e-05
1.2791096e-05
1.3275358e-05
7.5958638e-06
3.9931346e-06
2.4967006e-06
2.9598032e-06
3.5229602e-06
3.3844411e-06
2.903161e-06
1.9994656e-06
1.0224047e-06
7.2339995e-07
5.0887363e-07
3.434422e-07
2.1840258e-07
1.2479949e-07
5.5146911e-08
2.0864905e-08
6.9409378e-09
2.0750802e-09
5.6214749e-10
1.3672474e-10
2.9034811e-11
5.1546269e-12
7.7488322e-13
1.8518563e-13
1.5095915e-13
1.6107211e-13
4.1834509e-05
1.1545189e-05
1.2793711e-05
1.3286792e-05
7.6065401e-06
3.9995866e-06
2.4987127e-06
2.9552961e-06
3.5172875e-06
3.3795949e-06
2.899694e-06
1.996891e-06
1.0220682e-06
7.2339651e-07
5.089277e-07
3.4347399e-07
2.1840476e-07
1.2476098e-07
5.5119608e-08
2.0851663e-08
6.9359318e-09
2.0734946e-09
5.6170966e-10
1.3661827e-10
2.9012389e-11
5.150673e-12
7.7427026e-13
1.8501291e-13
1.5080669e-13
1.6090818e-13
4.1831654e-05
1.1550255e-05
1.2796334e-05
1.3298244e-05
7.6172361e-06
4.0060582e-06
2.5007506e-06
2.9507917e-06
3.5115976e-06
3.3747308e-06
2.896215e-06
1.9943108e-06
1.021738e-06
7.2339947e-07
5.0898649e-07
3.4350908e-07
2.184091e-07
1.2472378e-07
5.5092918e-08
2.0838666e-08
6.9310097e-09
2.0719344e-09
5.6127869e-10
1.3651346e-10
2.8990308e-11
5.1467772e-12
7.7366457e-13
1.8484066e-13
1.5065413e-13
1.6074414e-13
4.1828569e-05
1.1555328e-05
1.2798965e-05
1.3309708e-05
7.6279481e-06
4.0125448e-06
2.5028106e-06
2.9462904e-06
3.5058886e-06
3.3698484e-06
2.8927246e-06
1.9917251e-06
1.0214141e-06
7.2340888e-07
5.0904998e-07
3.4354741e-07
2.1841552e-07
1.2468778e-07
5.5066772e-08
2.0825878e-08
6.9261584e-09
2.0703956e-09
5.6085353e-10
1.3641006e-10
2.8968529e-11
5.1429343e-12
7.7306596e-13
1.8466919e-13
1.5050185e-13
1.6058038e-13
4.1825244e-05
1.1560409e-05
1.2801611e-05
1.3321196e-05
7.6386835e-06
4.0190475e-06
2.5048932e-06
2.9417901e-06
3.5001638e-06
3.3649473e-06
2.8892229e-06
1.9891349e-06
1.0210969e-06
7.2342472e-07
5.0911822e-07
3.4358906e-07
2.1842411e-07
1.2465306e-07
5.5041216e-08
2.0813323e-08
6.9213869e-09
2.068881e-09
5.6043501e-10
1.3630827e-10
2.8947091e-11
5.1391503e-12
7.7247485e-13
1.8449826e-13
1.5034954e-13
1.604166e-13
4.1821672e-05
1.1565509e-05
1.2804272e-05
1.3332696e-05
7.6494374e-06
4.0255696e-06
2.5069998e-06
2.9372914e-06
3.4944252e-06
3.3600286e-06
2.8857094e-06
1.9865404e-06
1.0207863e-06
7.2344688e-07
5.0919109e-07
3.4363391e-07
2.1843476e-07
1.2461956e-07
5.5016209e-08
2.0800979e-08
6.9166857e-09
2.0673876e-09
5.6002223e-10
1.3620789e-10
2.8925954e-11
5.1354198e-12
7.7189105e-13
1.8432821e-13
1.501976e-13
1.602532e-13
4.1817845e-05
1.1570635e-05
1.2806947e-05
1.3344189e-05
7.6602057e-06
4.0321117e-06
2.5091296e-06
2.9327936e-06
3.4886739e-06
3.3550937e-06
2.8821838e-06
1.9839422e-06
1.0204824e-06
7.2347551e-07
5.092687e-07
3.4368207e-07
2.1844757e-07
1.2458737e-07
5.4991818e-08
2.0788881e-08
6.9120699e-09
2.0659201e-09
5.5961651e-10
1.3610922e-10
2.8905173e-11
5.1317504e-12
7.713149e-13
1.8415865e-13
1.5004556e-13
1.6008968e-13
4.1813756e-05
1.1575783e-05
1.2809634e-05
1.335569e-05
7.6709988e-06
4.0386755e-06
2.5112847e-06
2.9282976e-06
3.4829072e-06
3.3501402e-06
2.878645e-06
1.98134e-06
1.0201852e-06
7.2351071e-07
5.0935106e-07
3.437335e-07
2.1846247e-07
1.2455636e-07
5.4967958e-08
2.0776987e-08
6.9075226e-09
2.0644733e-09
5.5921642e-10
1.3601192e-10
2.8884686e-11
5.1281327e-12
7.7074566e-13
1.839898e-13
1.4989371e-13
1.5992635e-13
4.1809396e-05
1.1580947e-05
1.2812329e-05
1.3367209e-05
7.6818147e-06
4.0452509e-06
2.513461e-06
2.9238034e-06
3.4771271e-06
3.3451685e-06
2.8750942e-06
1.9787343e-06
1.0198947e-06
7.2355243e-07
5.0943822e-07
3.437883e-07
2.1847957e-07
1.2452662e-07
5.4944683e-08
2.0765322e-08
6.9030538e-09
2.0630503e-09
5.5882281e-10
1.359162e-10
2.8864529e-11
5.124572e-12
7.7018369e-13
1.8382149e-13
1.4974187e-13
1.5976304e-13
4.1804759e-05
1.1586131e-05
1.2815019e-05
1.337872e-05
7.6926438e-06
4.0518427e-06
2.5156616e-06
2.9193109e-06
3.4713337e-06
3.3401802e-06
2.8715326e-06
1.9761255e-06
1.0196113e-06
7.2360051e-07
5.0953004e-07
3.4384635e-07
2.184988e-07
1.2449815e-07
5.4921975e-08
2.0753873e-08
6.8986568e-09
2.0616487e-09
5.5843499e-10
1.3582188e-10
2.884467e-11
5.1210636e-12
7.6962885e-13
1.8365409e-13
1.4959045e-13
1.5960018e-13
4.1799836e-05
1.1591345e-05
1.2817703e-05
1.3390209e-05
7.7034973e-06
4.0584551e-06
2.5178871e-06
2.9148212e-06
3.465527e-06
3.3351759e-06
2.8679599e-06
1.9735134e-06
1.0193348e-06
7.2365514e-07
5.0962661e-07
3.4390774e-07
2.1852021e-07
1.24471e-07
5.4899898e-08
2.0742679e-08
6.8943477e-09
2.060274e-09
5.5805447e-10
1.3572932e-10
2.882518e-11
5.1176184e-12