/*--------------------------------*- C++ -*----------------------------------*\
| =========                 |                                                 |
| \\      /  F ield         | OpenFOAM: The Open Source CFD Toolbox           |
|  \\    /   O peration     | Version:  v2012                                 |
|   \\  /    A nd           | Website:  www.openfoam.com                      |
|    \\/     M anipulation  |                                                 |
\*---------------------------------------------------------------------------*/
FoamFile
{
    version     2.0;
    format      ascii;
    class       volScalarField;
    location    "300";
    object      omega;
}
// * * * * * * * * * * * * * * * * * * * * * * * * * * * * * * * * * * * * * //

dimensions      [0 0 -1 0 0 0 0];


internalField   nonuniform List<scalar> 
24000
(
2235.0546
2943.5696
2669.4195
2952.9875
5582.1849
16301.593
48077.311
114413.81
179763.25
217641.48
215453.2
215345.13
369716.1
739260.48
1214100.7
1673585
2147417.4
2726511
3573492.4
4953848.9
7302023.9
11370852
18570279
31768369
57361275
1.1136247e+08
2.4072907e+08
6.1867249e+08
2.1577465e+09
1.4585076e+10
2235.1107
2943.379
2669.1447
2952.1517
5576.7549
16279.902
47863.528
113822.02
179137.43
217244.26
215123.28
213464.66
364879.76
731943.26
1204873.8
1662694.2
2133948.2
2709452.3
3552861.3
4930833.3
7277666.7
11344302
18537488
31720565
57280765
1.1120938e+08
2.4039535e+08
6.1778186e+08
2.1543735e+09
1.4567769e+10
2235.181
2942.9666
2668.5392
2951.0215
5567.9347
16231.985
47685.342
113554.06
178963.74
217217.97
215142.49
212965.73
363266.44
729092.95
1201317.8
1658967.3
2130082.2
2704873.4
3546166.9
4920187
7261584.2
11322005
18508292
31682361
57227397
1.1112504e+08
2.4023871e+08
6.1742914e+08
2.1533523e+09
1.4557708e+10
2235.2436
2942.6273
2668.1211
2949.7657
5558.6131
16192.308
47555.401
113343.97
178782.57
217096.66
215060.4
212750.21
362833.8
728306.17
1200241.2
1657914.1
2129363.8
2704717.6
3547029.6
4922701.1
7266243.3
11328957
18517493
31694040
57242778
1.1114768e+08
2.4027797e+08
6.1751139e+08
2.1535619e+09
1.4560288e+10
2235.2998
2942.3355
2667.7837
2948.4258
5549.0766
16155.012
47435.277
113139.55
178587.45
216928.37
214929.81
212659.16
362591.33
727658.01
1199211.5
1656676.3
2127967
2703099.6
3545030
4920104.1
7262855.5
11324612
18511924
31686598
57231883
1.1112949e+08
2.4024229e+08
6.1742571e+08
2.1532839e+09
1.4558132e+10
2235.35
2942.1086
2667.532
2947.0967
5539.7439
16119.568
47320.452
112939.31
178389.66
216751.76
214790.54
212566.83
362451.78
727298.36
1198592.8
1655871.1
2127050.5
2702157.5
3544149.1
4919347.9
7262226.9
11324023
18511178
31685349
57229489
1.1112456e+08
2.4023118e+08
6.1739613e+08
2.153176e+09
1.4557481e+10
2235.3962
2941.9345
2667.3395
2945.7972
5530.6247
16085.139
47207.979
112739.51
178188.27
216575.68
214644.61
212476.03
362355.52
727041.71
1198087.4
1655135.1
2126141.7
2701148.2
3543098.8
4918279.3
7261108.7
11322755
18509560
31682998
57225624
1.1111741e+08
2.4021609e+08
6.173578e+08
2.1530433e+09
1.4556578e+10
2235.4401
2941.8019
2667.1891
2944.5323
5521.706
16051.403
47096.84
112539.81
177985.57
216399.58
214495.19
212385.16
362282.35
726841.66
1197653.6
1654462
2125282.9
2700183.4
3542104.2
4917298.9
7260130.4
11321693
18508231
31681054
57222374
1.1111131e+08
2.4020305e+08
6.173244e+08
2.1529266e+09
1.45558e+10
2235.4829
2941.7005
2667.0687
2943.3018
5512.971
16018.203
46986.551
112339.86
177781.43
216222.46
214343.54
212294.18
362220.58
726669.23
1197254
1653817
2124442.2
2699226.3
3541108.2
4916309.4
7259136.6
11320610
18506878
31679083
57219092
1.1110516e+08
2.4018995e+08
6.1729088e+08
2.1528096e+09
1.4555019e+10
2235.5256
2941.6226
2666.9708
2942.1051
5504.4099
15985.467
46876.906
112139.47
177575.84
216044.12
214190.42
212202.92
362164.74
726511
1196872
1653186.2
2123610.4
2698273.3
3540113.4
4915320.4
7258143.6
11319529
18505523
31677104
57215789
1.1109896e+08
2.4017673e+08
6.1725705e+08
2.1526915e+09
1.4554231e+10
2235.5688
2941.5626
2666.8906
2940.9416
5496.0177
15953.162
46767.807
111938.54
177368.77
215864.45
214036.12
212111.28
362111.86
726359.54
1196497.8
1652560.9
2122780.7
2697318.9
3539114.3
4914324.2
7257139.8
11318430
18504140
31675078
57212400
1.110926e+08
2.4016316e+08
6.1722232e+08
2.1525703e+09
1.4553422e+10
2235.6129
2941.5169
2666.8254
2939.8111
5487.7921
15921.274
46659.214
111737.03
177160.25
215683.44
213880.81
212019.19
362060.38
726210.91
1196126.4
1651936.7
2121949.9
2696361.3
3538109.6
4913319.9
7256124.1
11317313
18502727
31672998
57208914
1.1108605e+08
2.4014918e+08
6.1718656e+08
2.1524456e+09
1.4552589e+10
2235.6583
2941.483
2666.7734
2938.7136
5479.732
15889.799
46551.114
111534.93
176950.33
215501.07
213724.55
211926.63
362009.47
726062.99
1195755
1651311.3
2121116.3
2695399.1
3537098.7
4912306.9
7255095.4
11316175
18501280
31670860
57205321
1.1107929e+08
2.4013476e+08
6.1714966e+08
2.1523169e+09
1.455173e+10
2235.705
2941.4591
2666.7335
2937.6488
5471.8368
15858.734
46443.507
111332.25
176739.04
215317.37
213567.33
211833.56
361958.68
725914.55
1195382
1650683.2
2120278.8
2694431.9
3536081.1
4911284.7
7254053.3
11315017
18499798
31668662
57201622
1.1107232e+08
2.401199e+08
6.1711165e+08
2.1521844e+09
1.4550844e+10
2235.7533
2941.444
2666.705
2936.6167
5464.1057
15828.08
46336.402
111128.98
176526.44
215132.33
213409.14
211739.97
361907.77
725764.99
1195006.7
1650051.8
2119437.1
2693459.4
3535056.8
4910253.4
7252997.8
11313837
18498282
31666405
57197816
1.1106515e+08
2.4010459e+08
6.1707251e+08
2.152048e+09
1.4549933e+10
2235.8032
2941.437
2666.6873
2935.6171
5456.5379
15797.835
46229.806
110925.16
176312.53
214945.99
213249.96
211645.86
361856.68
725614.1
1194628.8
1649416.9
2118591.3
2692481.9
3534026.1
4909213.3
7251929.4
11312637
18496732
31664091
57193908
1.1105779e+08
2.4008887e+08
6.1703232e+08
2.1519079e+09
1.4548996e+10
2235.8547
2941.4373
2666.6798
2934.6496
5449.1323
15767.998
46123.731
110720.79
176097.34
214758.36
213089.8
211551.23
361805.43
725461.85
1194248.3
1648778.9
2117741.7
2691499.9
3532989.8
4908165.3
7250849
11311418
18495151
31661724
57189904
1.1105024e+08
2.4007275e+08
6.1699111e+08
2.1517644e+09
1.4548036e+10
2235.908
2941.4447
2666.6823
2933.714
5441.8871
15738.565
46018.185
110515.9
175880.88
214569.46
212928.63
211456.07
361754.01
725308.2
1193865.1
1648137.5
2116888.3
2690513.5
3531948
4907109.8
7249757.5
11310182
18493542
31659308
57185812
1.1104252e+08
2.4005628e+08
6.16949e+08
2.1516178e+09
1.4547054e+10
2235.963
2941.4586
2666.6944
2932.8098
5434.8005
15709.533
45913.177
110310.51
175663.17
214379.3
212766.43
211360.4
361702.45
725153.21
1193479.4
1647493
2116031.5
2689523.2
3530901.1
4906047.4
7248655.5
11308929
18491904
31656844
57181635
1.1103464e+08
2.4003945e+08
6.1690598e+08
2.151468e+09
1.4546051e+10
2236.0199
2941.4788
2666.7156
2931.9365
5427.8703
15680.899
45808.714
110104.65
175444.23
214187.87
212603.21
211264.21
361650.82
724996.96
1193091.2
1646845.4
2115171.2
2688529
3529849.5
4904978.3
7247543.3
11307660
18490241
31654335
57177377
1.110266e+08
2.4002229e+08
6.1686213e+08
2.1513155e+09
1.4545029e+10
2236.0786
2941.5051
2666.7457
2931.0936
5421.094
15652.657
45704.803
109898.34
175224.06
213995.17
212438.97
211167.51
361599.16
724839.55
1192700.8
1646195.1
2114308
2687531.3
3528793.5
4903903.1
7246421.9
11306375
18488552
31651783
57173041
1.1101841e+08
2.400048e+08
6.1681746e+08
2.15116e+09
1.4543987e+10
2236.1393
2941.5372
2666.7845
2930.2804
5414.469
15624.804
45601.448
109691.6
175002.7
213801.21
212273.73
211070.29
361547.5
724680.99
1192308
1645542
2113441.5
2686530.1
3527733.1
4902821.7
7245291
11305076
18486839
31649190
57168631
1.1101008e+08
2.3998702e+08
6.1677204e+08
2.1510021e+09
1.4542928e+10
2236.2021
2941.575
2666.8315
2929.4964
5407.9926
15597.335
45498.651
109484.45
174780.19
213606
212107.48
210972.57
361495.89
724521.38
1191913.1
1644886.2
2112572
2685525.5
3526668.6
4901734.5
7244151.4
11303763
18485102
31646556
57164148
1.1100161e+08
2.3996894e+08
6.1672585e+08
2.1508414e+09
1.454185e+10
2236.267
2941.6185
2666.8865
2928.7408
5401.6619
15570.249
45396.414
109276.91
174556.56
213409.55
211940.21
210874.34
361444.36
724360.76
1191516.1
1644227.7
2111699.7
2684517.5
3525599.7
4900641.3
7243002.7
11302435
18483342
31643882
57159595
1.10993e+08
2.3995056e+08
6.1667893e+08
2.1506783e+09
1.4540755e+10
2236.3342
2941.6674
2666.9492
2928.0131
5395.4737
15543.542
45294.737
109069
174331.86
213211.86
211771.92
210775.61
361392.97
724199.27
1191117.2
1643567
2110824.7
2683506.6
3524527
4899542.6
7241845.7
11301095
18481560
31641170
57154973
1.1098426e+08
2.3993191e+08
6.1663128e+08
2.1505127e+09
1.4539643e+10
2236.4038
2941.7218
2667.0194
2927.3124
5389.4248
15517.209
45193.618
108860.73
174106.09
213012.93
211602.55
210676.37
361341.77
724036.95
1190716.4
1642903.9
2109947.2
2682492.6
3523450.4
4898438.3
7240680
11299740
18479756
31638421
57150284
1.109754e+08
2.3991298e+08
6.1658296e+08
2.1503447e+09
1.4538515e+10
2236.4759
2941.7816
2667.0966
2926.6381
5383.5117
15491.243
45093.056
108652.14
173879.26
212812.76
211432.02
210576.62
361290.78
723873.84
1190313.9
1642238.6
2109067.2
2681475.7
3522370.1
4897328.8
7239506.4
11298373
18477931
31635635
57145530
1.109664e+08
2.3989378e+08
6.1653393e+08
2.1501744e+09
1.453737e+10
2236.5507
2941.8467
2667.1808
2925.9894
5377.7312
15465.635
44993.045
108443.22
173651.34
212611.34
211260.32
210476.36
361240
723709.94
1189909.5
1641571
2108184.6
2680456
3521286.1
4896214
7238324.5
11296992
18476083
31632813
57140711
1.1095729e+08
2.3987432e+08
6.1648426e+08
2.1500019e+09
1.453621e+10
2236.6283
2941.9173
2667.2715
2925.3656
5372.0796
15440.377
44893.581
108234.01
173422.35
212408.67
211087.46
210375.6
361189.49
723545.37
1189503.5
1640901.5
2107300
2679433.8
3520199
4895094.5
7237135.4
11295600
18474217
31629957
57135829
1.1094805e+08
2.398546e+08
6.1643392e+08
2.149827e+09
1.4535034e+10
2236.7088
2941.9932
2667.3685
2924.7661
5366.5535
15415.46
44794.657
108024.52
173192.28
212204.75
210913.44
210274.33
361139.28
723380.14
1189095.9
1640229.9
2106413
2678408.9
3519108.3
4893969.9
7235938.3
11294195
18472330
31627067
57130888
1.109387e+08
2.3983464e+08
6.1638297e+08
2.1496501e+09
1.4533844e+10
2236.7926
2942.0746
2667.4716
2924.19
5361.1494
15390.874
44696.266
107814.76
172961.13
211999.59
210738.27
210172.56
361089.37
723214.25
1188686.6
1639556.3
2105523.7
2677381.5
3518014.3
4892840.6
7234734
11292779
18470423
31624142
57125885
1.1092923e+08
2.3981442e+08
6.1633137e+08
2.149471e+09
1.4532638e+10
2236.8797
2942.1615
2667.5807
2923.6368
5355.8638
15366.608
44598.399
107604.75
172728.94
211793.18
210561.96
210070.31
361039.77
723047.69
1188275.7
1638880.5
2104632.1
2676351.3
3516916.9
4891706.3
7233522
11291350
18468495
31621183
57120820
1.1091964e+08
2.3979395e+08
6.1627915e+08
2.1492897e+09
1.4531417e+10
2236.9704
2942.254
2667.6954
2923.1058
5350.6934
15342.651
44501.047
107394.5
172495.77
211585.56
210384.54
209967.58
360990.5
722880.51
1187863.2
1638202.9
2103738.5
2675318.8
3515816.4
4890567.5
7232303
11289910
18466550
31618191
57115696
1.1090994e+08
2.3977324e+08
6.1622629e+08
2.1491063e+09
1.4530182e+10
2237.0649
2942.3523
2667.8157
2922.5963
5345.6348
15318.993
44404.2
107184.01
172261.66
211376.74
210206.06
209864.36
360941.58
722712.7
1187449.2
1637523.2
2102842.6
2674283.7
3514712.4
4889423.6
7231076.2
11288457
18464583
31615166
57110514
1.1090013e+08
2.3975229e+08
6.1617285e+08
2.1489209e+09
1.4528932e+10
2237.1635
2942.4566
2667.9413
2922.1078
5340.6848
15295.625
44307.847
106973.3
172026.67
211166.72
210026.52
209760.67
360893.01
722544.27
1187033.5
1636841.6
2101944.5
2673246.1
3513605.2
4888275.2
7229842.2
11286993
18462598
31612108
57105270
1.108902e+08
2.3973109e+08
6.1611875e+08
2.1487332e+09
1.4527667e+10
2237.2664
2942.5669
2668.0722
2921.6397
5335.8403
15272.537
44211.978
106762.36
171790.77
210955.51
209845.89
209656.5
360844.8
722375.2
1186616.2
1636157.9
2101044.1
2672205.8
3512494.7
4887121.9
7228600.6
11285516
18460592
31609015
57099966
1.1088015e+08
2.3970964e+08
6.1606405e+08
2.1485434e+09
1.4526387e+10
2237.3739
2942.6837
2668.2083
2921.1914
5331.0983
15249.725
44116.58
106551.22
171553.99
210743.11
209664.05
209551.86
360796.98
722205.55
1186197.4
1635472.3
2100141.7
2671163.3
3511381.2
4885964.1
7227352.2
11284029
18458568
31605889
57094603
1.1086999e+08
2.3968794e+08
6.1600871e+08
2.1483515e+09
1.4525093e+10
2237.4863
2942.807
2668.3494
2920.7624
5326.4559
15227.184
44021.642
106339.87
171316.31
210529.52
209480.98
209446.73
360749.55
722035.29
1185777
1634784.7
2099237.1
2670118.1
3510264.2
4884801.3
7226095.8
11282529
18456523
31602730
57089180
1.1085971e+08
2.3966601e+08
6.1595277e+08
2.1481575e+09
1.4523784e+10
2237.6039
2942.9372
2668.4955
2920.3521
5321.9102
15204.912
43927.151
106128.32
171077.72
210314.76
209296.63
209341.13
360702.52
721864.46
1185355.1
1634095.1
2098330.3
2669070.5
3509144.1
4883634
7224832.4
11281017
18454459
31599536
57083695
1.1084932e+08
2.3964382e+08
6.1589617e+08
2.1479613e+09
1.4522459e+10
2237.7269
2943.0744
2668.6466
2919.9601
5317.4585
15182.899
43833.096
105916.58
170838.2
210098.8
209110.98
209235.03
360655.87
721692.98
1184931.5
1633403.5
2097421.1
2668020.2
3508020.6
4882461.8
7223561.3
11279493
18452375
31596308
57078149
1.1083881e+08
2.3962138e+08
6.1583895e+08
2.1477629e+09
1.452112e+10
2237.8558
2943.2191
2668.8025
2919.586
5313.098
15161.136
43739.461
105704.65
170597.74
209881.65
208923.97
209128.45
360609.6
721520.85
1184506.4
1632710
2096509.9
2666967.4
3506893.8
4881284.9
7222283
11277957
18450270
31593046
57072540
1.1082817e+08
2.3959867e+08
6.1578106e+08
2.1475622e+09
1.4519764e+10
2237.9909
2943.3715
2668.9634
2919.2294
5308.8261
15139.615
43646.233
105492.52
170356.34
209663.3
208735.54
209021.37
360563.74
721348.1
1184079.6
1632014.4
2095596.3
2665911.9
3505763.4
4880102.4
7220996.2
11276408
18448145
31589749
57066871
1.1081742e+08
2.3957573e+08
6.1572256e+08
2.1473595e+09
1.4518395e+10
2238.1324
2943.5319
2669.1293
2918.8898
5304.6403
15118.325
43553.402
105280.21
170114.06
209443.79
208545.68
208913.79
360518.3
721174.79
1183651.4
1631316.9
2094680.8
2664854.2
3504629.9
4878915.5
7219702.3
11274848
18446000
31586418
57061139
1.1080655e+08
2.3955252e+08
6.156634e+08
2.1471545e+09
1.4517009e+10
2238.2809
2943.7007
2669.3002
2918.567
5300.5382
15097.257
43460.952
105067.69
169871.01
209223.12
208354.19
208805.69
360473.26
721000.85
1183221.5
1630617.5
2093763
2663793.8
3503493.1
4877723.8
7218400.7
11273274
18443834
31583051
57055345
1.1079557e+08
2.3952907e+08
6.1560361e+08
2.1469473e+09
1.4515609e+10
2238.4365
2943.8782
2669.4762
2918.2605
5296.5175
15076.4
43368.87
104854.98
169627.19
209001.31
208161.01
208697.07
360428.64
720826.32
1182790.2
1629916.3
2092843.3
2662731.2
3502353.3
4876527.5
7217092.1
11271690
18441649
31579651
57049489
1.1078446e+08
2.3950535e+08
6.1554315e+08
2.1467378e+09
1.4514192e+10
2238.5997
2944.0649
2669.6575
2917.9702
5292.5759
15055.743
43277.147
104642.06
169382.61
208778.36
207966.13
208587.93
360384.44
720651.17
1182357.3
1629213
2091921.2
2661665.9
3501209.9
4875325.9
7215775.2
11270092
18439443
31576216
57043573
1.1077324e+08
2.394814e+08
6.1548209e+08
2.1465263e+09
1.4512762e+10
2238.7709
2944.2611
2669.8442
2917.6958
5288.7113
15035.277
43185.767
104428.93
169137.26
208554.28
207769.6
208478.28
360340.67
720475.45
1181922.8
1628507.8
2090997.2
2660598.3
3500063.5
4874119.9
7214451.3
11268483
18437218
31572747
57037593
1.1076189e+08
2.3945718e+08
6.1542036e+08
2.1463125e+09
1.4511316e+10
2238.9503
2944.4673
2670.0364
2917.4369
5284.9218
15014.997
43094.716
104215.59
168891.15
208329.1
207571.55
208368.14
360297.31
720299.07
1181486.8
1627800.6
2090070.8
2659527.9
3498913.6
4872908.9
7213119.5
11266861
18434971
31569242
57031551
1.1075043e+08
2.3943271e+08
6.15358e+08
2.1460966e+09
1.4509854e+10
2239.1385
2944.684
2670.2343
2917.1934
5281.2054
14994.902
43003.984
104002.04
168644.25
208102.83
207372.1
208257.56
360254.38
720122.06
1181049.2
1627091.6
2089142.5
2658455.3
3497760.5
4871693.3
7211780.6
11265227
18432705
31565703
57025446
1.1073884e+08
2.3940797e+08
6.1529496e+08
2.1458783e+09
1.4508376e+10
2239.3357
2944.9116
2670.4381
2916.9651
5277.5603
14974.994
42913.56
103788.28
168396.54
207875.5
207171.38
208146.57
360211.88
719944.41
1180610
1626380.6
2088211.8
2657379.8
3496603.7
4870472
7210433.1
11263580
18430417
31562128
57019280
1.1072714e+08
2.3938299e+08
6.1523131e+08
2.1456579e+09
1.4506884e+10
2239.5423
2945.1506
2670.648
2916.7518
5273.9845
14955.266
42823.43
103574.31
168147.98
207647.11
206969.53
208035.2
360169.85
719766.2
1180169.4
1625667.8
2087279.2
2656302.1
3495444
4869246.3
7209078.3
11261921
18428110
31558518
57013050
1.1071531e+08
2.3935775e+08
6.1516697e+08
2.1454351e+09
1.4505376e+10
2239.7588
2945.4014
2670.8641
2916.5532
5270.4761
14935.71
42733.581
103360.12
167898.52
207417.67
206766.63
207923.47
360128.25
719587.31
1179727.2
1624953.1
2086344.5
2655221.9
3494280.8
4868015.6
7207715.6
11260249
18425781
31554873
57006756
1.1070336e+08
2.3933224e+08
6.1510198e+08
2.1452102e+09
1.4503852e+10
2239.9855
2945.6646
2671.0867
2916.3694
5267.0331
14916.316
42644.002
103145.72
167648.15
207187.21
206562.78
207811.41
360087.07
719407.76
1179283.4
1624236.5
2085407.8
2654139.4
3493114.6
4866780.4
7206346
11258566
18423432
31551193
57000399
1.1069129e+08
2.3930647e+08
6.1503632e+08
2.144983e+09
1.4502313e+10
2240.2229
2945.9405
2671.316
2916.2
5263.6536
14897.076
42554.685
102931.07
167397.07
206955.75
206358.11
207699.04
360046.31
719227.5
1178838
1623517.9
2084468.8
2653054.3
3491944.8
4865539.7
7204967.7
11256869
18421062
31547478
56993980
1.1067911e+08
2.3928046e+08
6.1497005e+08
2.1447536e+09
1.4500758e+10
2240.4712
2946.2297
2671.5523
2916.0451
5260.3357
14877.976
42465.617
102716.18
167145.29
206723.33
206152.82
207586.38
360006.02
719046.62
1178391.1
1622797.6
2083528
2651966.9
3490772.1
4864294.6
7203582.3
11255160
18418672
31543727
56987497
1.1066679e+08
2.3925417e+08
6.1490309e+08
2.1445219e+09
1.4499188e+10
2240.731
2946.5327
2671.7958
2915.9044
5257.0774
14859.003
42376.789
102501.05
166892.82
206489.96
205947.2
207473.46
359966.14
718865.01
1177942.6
1622075.2
2082584.9
2650877
3489596
4863044.6
7202189.1
11253439
18416261
31539941
56980950
1.1065436e+08
2.3922763e+08
6.1483549e+08
2.144288e+09
1.4497602e+10
2241.0026
2946.8499
2672.0469
2915.7778
5253.8768
14840.14
42288.188
102285.65
166639.64
206255.63
205741.05
207360.28
359926.68
718682.65
1177492.4
1621351.1
2081639.9
2649784.9
3488416.9
4861790.1
7200788.9
11251706
18413830
31536120
56974340
1.106418e+08
2.3920082e+08
6.1476719e+08
2.1440518e+09
1.4496e+10
2241.2864
2947.1818
2672.3058
2915.6654
5250.7319
14821.373
42199.804
102070.01
166385.75
206020.35
205534.3
207246.87
359887.63
718499.49
1177040.5
1620624.8
2080692.7
2648689.9
3487234
4860529.8
7199379.7
11249959
18411376
31532262
56967666
1.1062913e+08
2.3917376e+08
6.1469827e+08
2.1438134e+09
1.4494383e+10
2241.5829
2947.529
2672.5727
2915.567
5247.6409
14802.699
42111.633
101854.1
166131.15
205784.11
205326.78
207133.21
359849.01
718315.58
1176587
1619896.8
2079743.5
2647592.9
3486048.2
4859265.1
7197963.3
11248200
18408903
31528368
56960927
1.1061632e+08
2.3914643e+08
6.1462866e+08
2.1435726e+09
1.4492749e+10
2241.8924
2947.8918
2672.8481
2915.4825
5244.602
14784.121
42023.665
101637.93
165875.81
205546.91
205118.39
207019.31
359810.8
718130.89
1176131.8
1619166.7
2078792.2
2646493.4
3484859.1
4857995.4
7196538.9
11246428
18406408
31524439
56954124
1.106034e+08
2.3911884e+08
6.145584e+08
2.1433296e+09
1.44911e+10
2242.2154
2948.2708
2673.1322
2915.412
5241.6131
14765.625
41935.892
101421.49
165619.69
205308.75
204909.07
206905.18
359773
717945.38
1175674.9
1618434.8
2077839
2645391.7
3483667.1
4856721.3
7195107.6
11244645
18403893
31520475
56947257
1.1059035e+08
2.3909098e+08
6.1448745e+08
2.1430843e+09
1.4489435e+10
2242.5521
2948.6664
2673.4254
2915.3554
5238.6723
14747.196
41848.305
101204.79
165362.72
205069.59
204698.94
206790.81
359735.61
717759.01
1175216.3
1617700.8
2076883.6
2644287.4
3482471.5
4855441.9
7193667.7
11242848
18401357
31516475
56940328
1.1057718e+08
2.3906288e+08
6.1441588e+08
2.1428368e+09
1.4487756e+10
2242.9031
2949.0792
2673.728
2915.3126
5235.7778
14728.818
41760.895
100987.86
165104.71
204829.4
204487.95
206676.19
359698.63
717571.85
1174755.9
1616964.9
2075926.2
2643180.9
3481273
4854158
7192220.8
11241039
18398800
31512439
56933335
1.1056389e+08
2.390345e+08
6.1434362e+08
2.142587e+09
1.4486059e+10
2243.2687
2949.5096
2674.0403
2915.2837
5232.9279
14710.473
41673.657
100770.64
164845.88
204588.21
204276.04
206561.29
359662.04
717383.76
1174293.7
1616226.9
2074966.6
2642071.8
3480071.1
4852869.1
7190765.8
11239217
18396222
31508367
56926276
1.1055047e+08
2.3900586e+08
6.1427071e+08
2.142335e+09
1.4484348e+10
2243.6492
2949.9582
2674.3626
2915.2687
5230.121
14692.14
41586.581
100553.15
164586.35
204346.04
204063.16
206446.11
359625.84
717194.8
1173829.7
1615487
2074005
2640960.5
3478866.3
4851575.6
7189303.6
11237383
18393624
31504260
56919153
1.1053693e+08
2.3897695e+08
6.141971e+08
2.1420806e+09
1.4482619e+10
2244.0451
2950.4255
2674.6955
2915.2677
5227.3559
14673.796
41499.665
100335.36
164326.12
204102.87
203849.12
206330.62
359590.03
717004.88
1173363.7
1614744.8
2073041
2639846.6
3477657.8
4850276.7
7187832.7
11235536
18391004
31500116
56911967
1.1052327e+08
2.3894779e+08
6.1412286e+08
2.141824e+09
1.4480876e+10
2244.4568
2950.9119
2675.0391
2915.2805
5224.6314
14655.405
41412.902
100117.28
164065.18
203858.72
203633.92
206214.82
359554.65
716814.11
1172896
1614000.5
2072075
2638730.4
3476446.6
4848973.6
7186355
11233677
18388364
31495938
56904716
1.1050949e+08
2.3891836e+08
6.1404794e+08
2.1415651e+09
1.4479117e+10
2244.8846
2951.4181
2675.3939
2915.3074
5221.9468
14636.962
41326.284
99898.915
163803.54
203613.57
203417.55
206098.71
359519.68
716622.39
1172426.3
1613254
2071106.6
2637611.6
3475231.9
4847665.5
7184869.4
11231805
18385702
31491722
56897400
1.1049558e+08
2.3888867e+08
6.1397236e+08
2.1413039e+09
1.4477342e+10
2245.3289
2951.9445
2675.7602
2915.3484
5219.3018
14618.486
41239.808
99680.239
163541.19
203367.41
203200.07
205982.3
359485.1
716429.7
1171954.6
1612505.3
2070136
2636490.2
3474014
4846352.7
7183376.5
11229921
18383020
31487471
56890020
1.1048154e+08
2.388587e+08
6.1389607e+08
2.1410403e+09
1.447555e+10
2245.79
2952.4917
2676.1383
2915.4034
5216.6962
14599.963
41153.463
99461.267
163278.13
203120.27
202981.49
205865.59
359450.96
716236.08
1171481
1611754.4
2069162.9
2635366
3472792.2
4845034
7181874.5
11228022
18380316
31483183
56882574
1.1046738e+08
2.3882848e+08
6.1381915e+08
2.1407746e+09
1.4473743e+10
2246.2684
2953.0602
2676.5286
2915.4726
5214.1299
14581.457
41067.249
99241.991
163014.36
202872.14
202761.74
205748.6
359417.27
716041.6
1171005.6
1611001.4
2068187.8
2634239.6
3471567.4
4843710.9
7180365.1
11226112
18377590
31478859
56875063
1.1045309e+08
2.3879798e+08
6.1374151e+08
2.1405064e+09
1.4471919e+10
2246.7644
2953.6504
2676.9314
2915.5558
5211.6025
14563.017
40981.159
99022.408
162749.88
202623.04
202540.64
205631.31
359384.04
715846.22
1170528.3
1610246.2
2067210.3
2633110.6
3470339.4
4842382.8
7178847.9
11224189
18374843
31474498
56867487
1.1043868e+08
2.3876722e+08
6.1366323e+08
2.140236e+09
1.447008e+10
2247.2784
2954.263
2677.347
2915.6532
5209.1134
14544.649
40895.188
98802.52
162484.68
202372.95
202318.07
205513.73
359351.28
715649.95
1170049.2
1609489
2066230.8
2631979.3
3469108.4
4841050.4
7177323.9
11222254
18372077
31470102
56859846
1.1042415e+08
2.3873619e+08
6.1358425e+08
2.1399632e+09
1.4468224e+10
2247.8106
2954.8985
2677.7758
2915.7647
5206.6616
14526.353
40809.332
98582.313
162218.76
202121.88
202094.42
205395.87
359318.97
715452.74
1169568.1
1608729.5
2065248.8
2630845
3467873.4
4839712.2
7175790.8
11220305
18369288
31465670
56852141
1.1040949e+08
2.3870491e+08
6.1350464e+08
2.1396882e+09
1.4466353e+10
2248.3616
2955.5572
2678.218
2915.8903
5204.246
14508.128
40723.582
98361.799
161952.13
201869.86
201869.74
205277.76
359287.17
715254.69
1169085.3
1607967.9
2064264.6
2629708.5
3466635.4
4838369.4
7174250.4
11218344
18366479
31461201
56844371
1.1039471e+08
2.3867334e+08
6.1342432e+08
2.1394108e+09
1.4464465e+10
2248.9315
2956.2397
2678.6739
2916.03
5201.8658
14489.97
40637.933
98140.969
161684.79
201616.88
201644.03
205159.39
359255.85
715055.72
1168600.5
1607204.1
2063278.2
2628569.2
3465394
4837021.4
7172701.7
11216370
18363647
31456695
56836534
1.1037979e+08
2.3864152e+08
6.1334334e+08
2.1391312e+09
1.4462562e+10
2249.5208
2956.9465
2679.1439
2916.1839
5199.5198
14471.877
40552.385
97919.819
161416.72
201362.96
201417.27
205040.77
359225.04
714855.94
1168113.9
1606438.3
2062289.7
2627427.8
3464149.6
4835669.2
7171146.2
11214384
18360796
31452154
56828633
1.1036476e+08
2.3860942e+08
6.1326166e+08
2.1388492e+09
1.4460641e+10
2250.1298
2957.678
2679.6282
2916.3519
5197.207
14453.848
40466.93
97698.354
161147.93
201108.1
201189.49
204921.91
359194.76
714655.32
1167625.5
1605670.3
2061298.8
2626283.6
3462901.5
4834311.3
7169581.9
11212385
18357923
31447576
56820669
1.103496e+08
2.3857708e+08
6.1317936e+08
2.138565e+09
1.4458706e+10
2250.7588
2958.4346
2680.1271
2916.5341
5194.9264
14435.881
40381.566
97476.562
160878.41
200852.3
200960.7
204802.8
359165.02
714453.9
1167135.4
1604900.3
2060305.7
2625136.9
3461650.3
4832948.9
7168010.5
11210373
18355029
31442963
56812639
1.1033432e+08
2.3854445e+08
6.1309634e+08
2.1382784e+09
1.4456755e+10
2251.408
2959.2169
2680.6409
2916.7304
5192.6772
14417.972
40296.285
97254.453
160608.18
200595.56
200730.89
204683.46
359135.78
714251.6
1166643.4
1604128.1
2059310.3
2623987.5
3460395.5
4831581.2
7166430.6
11208348
18352113
31438313
56804544
1.1031891e+08
2.3851156e+08
6.1301267e+08
2.1379896e+09
1.4454787e+10
2252.0777
2960.0251
2681.1699
2916.9408
5190.4582
14400.12
40211.083
97032.021
160337.23
200337.87
200500.09
204563.89
359107.08
714048.51
1166149.7
1603354
2058312.9
2622835.9
3459137.8
4830209.1
7164843.8
11206311
18349177
31433627
56796383
1.1030338e+08
2.384784e+08
6.1292829e+08
2.1376983e+09
1.4452803e+10
2252.7683
2960.8598
2681.7143
2917.1653
5188.2685
14382.323
40125.96
96809.263
160065.55
200079.25
200268.34
204444.11
359078.94
713844.64
1165654.3
1602577.8
2057313.2
2621681.5
3457876.2
4828831.2
7163248
11204260
18346219
31428905
56788159
1.1028773e+08
2.3844499e+08
6.128433e+08
2.137405e+09
1.4450804e+10
2253.48
2961.7214
2682.2742
2917.4039
5186.1071
14364.577
40040.91
96586.182
159793.14
199819.74
200035.64
204324.11
359051.36
713640.04
1165157.3
1601799.8
2056311.6
2620525
3456611.8
4827449
7161645.1
11202198
18343241
31424147
56779870
1.1027194e+08
2.384113e+08
6.127576e+08
2.1371092e+09
1.4448789e+10
2254.2131
2962.6102
2682.85
2917.6565
5183.973
14346.882
39955.928
96362.774
159519.99
199559.33
199801.99
204203.9
359024.3
713434.6
1164658.5
1601019.7
2055307.7
2619365.8
3455344
4826061.7
7160034.2
11200122
18340241
31419352
56771516
1.1025604e+08
2.3837736e+08
6.1267125e+08
2.1368113e+09
1.4446758e+10
2254.9677
2963.5266
2683.4419
2917.9231
5181.8652
14329.234
39871.009
96139.042
159246.12
199298.02
199567.4
204083.48
358997.81
713228.44
1164158.1
1600237.8
2054301.9
2618204.5
3454073.2
4824670.1
7158416.6
11198036
18337222
31414524
56763100
1.1024002e+08
2.3834314e+08
6.1258422e+08
2.1365109e+09
1.4444711e+10
2255.7441
2964.4709
2684.0501
2918.2037
5179.7828
14311.633
39786.151
95914.982
158971.52
199035.79
199331.89
203962.86
358971.89
713021.53
1163656
1599453.9
2053294
2617040.5
3452798.8
4823272.7
7156789.8
11195934
18334181
31409659
56754620
1.1022387e+08
2.3830869e+08
6.1249657e+08
2.1362085e+09
1.4442649e+10
2256.5425
2965.4436
2684.6747
2918.4981
5177.7249
14294.074
39701.351
95690.596
158696.21
198772.64
199095.49
203842.05
358946.55
712813.93
1163152.5
1598668.3
2052284.2
2615874.6
3451521.7
4821871.4
7155156.4
11193822
18331120
31404759
56746076
1.102076e+08
2.3827395e+08
6.1240823e+08
2.1359037e+09
1.4440571e+10
2257.3632
2966.4448
2685.316
2918.8062
5175.6904
14276.557
39616.605
95465.882
158420.18
198508.6
198858.19
203721.04
358921.74
712605.53
1162647.2
1597880.6
2051272.3
2614706.1
3450241.4
4820465.2
7153515.2
11191697
18328037
31399823
56737469
1.1019121e+08
2.3823897e+08
6.1231926e+08
2.1355968e+09
1.4438478e+10
2258.2062
2967.475
2685.9742
2919.1281
5173.6785
14259.079
39531.907
95240.838
158143.4
198243.68
198620.01
203599.85
358897.48
712396.39
1162140.3
1597091.3
2050258.6
2613535.6
3448958.2
4819054.7
7151867.4
11189561
18324936
31394854
56728800
1.101747e+08
2.3820372e+08
6.122296e+08
2.1352875e+09
1.4436369e+10
2259.0719
2968.5345
2686.6493
2919.4635
5171.6883
14241.638
39447.252
95015.47
157865.88
197977.9
198380.99
203478.47
358873.8
712186.55
1161631.9
1596300
2049242.8
2612362.4
3447671.2
4817638.4
7150210.5
11187411
18321813
31389848
56720068
1.1015807e+08
2.3816823e+08
6.1213935e+08
2.1349762e+09
1.4434245e+10
2259.9603
2969.6235
2687.3416
2919.8124
5169.7189
14224.232
39362.642
94789.776
157587.62
197711.27
198141.12
203356.91
358850.7
711976.09
1161122.1
1595507.1
2048225.3
2611187.3
3446381.7
4816218.2
7148547
11185249
18318670
31384809
56711273
1.1014132e+08
2.3813248e+08
6.1204841e+08
2.1346626e+09
1.4432105e+10
2260.8715
2970.7423
2688.0512
2920.1748
5167.7694
14206.86
39278.072
94563.757
157308.63
197443.79
197900.41
203235.18
358828.15
711764.88
1160610.7
1594712.4
2047205.7
2610009.9
3445089.1
4814793.2
7146875.8
11183075
18315506
31379734
56702417
1.1012445e+08
2.3809647e+08
6.1195685e+08
2.1343468e+09
1.4429951e+10
2261.8058
2971.8912
2688.7782
2920.5505
5165.839
14189.519
39193.537
94337.411
157028.89
197175.46
197658.89
203113.29
358806.15
711553.02
1160097.8
1593916.1
2046184.5
2608830.5
3443793.8
4813364.2
7145198.3
11180891
18312324
31374626
56693500
1.1010746e+08
2.3806021e+08
6.1186464e+08
2.1340288e+09
1.4427781e+10
2262.7633
2973.0704
2689.5227
2920.9393
5163.9267
14172.207
39109.032
94110.736
156748.41
196906.29
197416.61