/*--------------------------------*- C++ -*----------------------------------*\
| =========                 |                                                 |
| \\      /  F ield         | OpenFOAM: The Open Source CFD Toolbox           |
|  \\    /   O peration     | Version:  v2012                                 |
|   \\  /    A nd           | Website:  www.openfoam.com                      |
|    \\/     M anipulation  |                                                 |
\*---------------------------------------------------------------------------*/
FoamFile
{
    version     2.0;
    format      ascii;
    class       volScalarField;
    location    "300";
    object      p;
}
// * * * * * * * * * * * * * * * * * * * * * * * * * * * * * * * * * * * * * //

dimensions      [1 -1 -2 0 0 0 0];


internalField   nonuniform List<scalar> 
24000
(
2509008.7
2509008.4
2509007.1
2509004
2508999.3
2508993.2
2508987.4
2508987.3
2508990.8
2508994.1
2508996.6
2508998.3
2508999.4
2509000.1
2509000.5
2509000.8
2509000.9
2509001
2509001
2509001.1
2509001.1
2509001.1
2509001.1
2509001.1
2509001.1
2509001.1
2509001.1
2509001.1
2509001
2509001
2509023.6
2509023.4
2509022.6
2509021.3
2509020
2509018.9
2509018.8
2509019.9
2509021
2509021.9
2509022.5
2509023.1
2509023.5
2509023.8
2509024
2509024.2
2509024.3
2509024.4
2509024.4
2509024.5
2509024.5
2509024.5
2509024.5
2509024.5
2509024.5
2509024.5
2509024.5
2509024.5
2509024.5
2509024.5
2509039.5
2509039.1
2509038.4
2509037.5
2509036.7
2509036.3
2509036.4
2509036.8
2509037.3
2509037.6
2509037.9
2509038.1
2509038.2
2509038.3
2509038.3
2509038.3
2509038.2
2509038.2
2509038.2
2509038.2
2509038.2
2509038.2
2509038.2
2509038.2
2509038.2
2509038.2
2509038.2
2509038.2
2509038.2
2509038.2
2509055.3
2509055.1
2509054.6
2509054.2
2509053.9
2509053.8
2509054.1
2509054.3
2509054.5
2509054.6
2509054.8
2509054.9
2509054.9
2509055
2509055
2509055
2509055
2509055.1
2509055.1
2509055.1
2509055.1
2509055.1
2509055.1
2509055.1
2509055.1
2509055.1
2509055.1
2509055.1
2509055.1
2509055.1
2509071.3
2509071.1
2509070.9
2509070.6
2509070.6
2509070.6
2509070.8
2509070.9
2509071
2509071
2509071.1
2509071.1
2509071.1
2509071.2
2509071.2
2509071.2
2509071.2
2509071.2
2509071.2
2509071.2
2509071.2
2509071.2
2509071.2
2509071.2
2509071.2
2509071.2
2509071.2
2509071.2
2509071.2
2509071.2
2509087.4
2509087.3
2509087.1
2509087.1
2509087.1
2509087.2
2509087.3
2509087.3
2509087.3
2509087.4
2509087.4
2509087.4
2509087.4
2509087.4
2509087.4
2509087.4
2509087.4
2509087.4
2509087.4
2509087.4
2509087.4
2509087.4
2509087.4
2509087.4
2509087.4
2509087.4
2509087.4
2509087.4
2509087.4
2509087.4
2509103.5
2509103.4
2509103.4
2509103.4
2509103.5
2509103.5
2509103.6
2509103.6
2509103.6
2509103.6
2509103.6
2509103.7
2509103.7
2509103.7
2509103.7
2509103.7
2509103.7
2509103.7
2509103.7
2509103.7
2509103.7
2509103.7
2509103.7
2509103.7
2509103.7
2509103.7
2509103.7
2509103.7
2509103.7
2509103.7
2509119.6
2509119.6
2509119.6
2509119.7
2509119.7
2509119.8
2509119.9
2509119.9
2509119.9
2509119.9
2509119.9
2509119.9
2509119.9
2509119.9
2509119.9
2509119.9
2509119.9
2509119.9
2509119.9
2509119.9
2509119.9
2509119.9
2509119.9
2509119.9
2509119.9
2509119.9
2509119.9
2509119.9
2509119.9
2509119.9
2509135.7
2509135.8
2509135.8
2509135.9
2509136
2509136.1
2509136.1
2509136.1
2509136.1
2509136.1
2509136.1
2509136.1
2509136.1
2509136.1
2509136.1
2509136.1
2509136.1
2509136.1
2509136.1
2509136.1
2509136.1
2509136.1
2509136.1
2509136.1
2509136.1
2509136.1
2509136.1
2509136.1
2509136.1
2509136.1
2509151.9
2509151.9
2509152
2509152.1
2509152.2
2509152.2
2509152.3
2509152.3
2509152.3
2509152.3
2509152.3
2509152.3
2509152.3
2509152.2
2509152.2
2509152.2
2509152.2
2509152.2
2509152.2
2509152.2
2509152.2
2509152.2
2509152.2
2509152.2
2509152.2
2509152.2
2509152.2
2509152.2
2509152.2
2509152.2
2509168
2509168
2509168.1
2509168.2
2509168.3
2509168.4
2509168.5
2509168.5
2509168.4
2509168.4
2509168.4
2509168.4
2509168.4
2509168.4
2509168.4
2509168.4
2509168.4
2509168.4
2509168.4
2509168.4
2509168.4
2509168.4
2509168.4
2509168.4
2509168.4
2509168.4
2509168.4
2509168.4
2509168.4
2509168.4
2509184.1
2509184.2
2509184.3
2509184.4
2509184.5
2509184.5
2509184.6
2509184.6
2509184.6
2509184.6
2509184.5
2509184.5
2509184.5
2509184.5
2509184.5
2509184.5
2509184.5
2509184.5
2509184.5
2509184.5
2509184.5
2509184.5
2509184.5
2509184.5
2509184.5
2509184.5
2509184.5
2509184.5
2509184.5
2509184.5
2509200.2
2509200.3
2509200.4
2509200.5
2509200.6
2509200.6
2509200.7
2509200.7
2509200.7
2509200.7
2509200.6
2509200.6
2509200.6
2509200.6
2509200.6
2509200.6
2509200.6
2509200.6
2509200.6
2509200.6
2509200.6
2509200.6
2509200.6
2509200.6
2509200.6
2509200.6
2509200.6
2509200.6
2509200.6
2509200.6
2509216.2
2509216.3
2509216.4
2509216.5
2509216.7
2509216.7
2509216.8
2509216.8
2509216.8
2509216.7
2509216.7
2509216.7
2509216.7
2509216.7
2509216.7
2509216.7
2509216.7
2509216.7
2509216.7
2509216.7
2509216.7
2509216.7
2509216.7
2509216.7
2509216.7
2509216.7
2509216.7
2509216.7
2509216.7
2509216.7
2509232.3
2509232.4
2509232.5
2509232.6
2509232.7
2509232.8
2509232.9
2509232.8
2509232.8
2509232.8
2509232.8
2509232.8
2509232.8
2509232.8
2509232.8
2509232.8
2509232.8
2509232.8
2509232.8
2509232.8
2509232.8
2509232.8
2509232.8
2509232.8
2509232.8
2509232.8
2509232.8
2509232.8
2509232.8
2509232.8
2509248.3
2509248.4
2509248.5
2509248.6
2509248.7
2509248.8
2509248.9
2509248.9
2509248.9
2509248.8
2509248.8
2509248.8
2509248.8
2509248.8
2509248.8
2509248.8
2509248.8
2509248.8
2509248.8
2509248.8
2509248.8
2509248.8
2509248.8
2509248.8
2509248.8
2509248.8
2509248.8
2509248.8
2509248.8
2509248.8
2509264.3
2509264.4
2509264.5
2509264.6
2509264.8
2509264.8
2509264.9
2509264.9
2509264.9
2509264.9
2509264.8
2509264.8
2509264.8
2509264.8
2509264.8
2509264.8
2509264.8
2509264.8
2509264.8
2509264.8
2509264.8
2509264.8
2509264.8
2509264.8
2509264.8
2509264.8
2509264.8
2509264.8
2509264.8
2509264.8
2509280.3
2509280.4
2509280.5
2509280.6
2509280.7
2509280.8
2509280.9
2509280.9
2509280.9
2509280.8
2509280.8
2509280.8
2509280.8
2509280.8
2509280.8
2509280.8
2509280.8
2509280.8
2509280.8
2509280.8
2509280.8
2509280.8
2509280.8
2509280.8
2509280.8
2509280.8
2509280.8
2509280.8
2509280.8
2509280.8
2509296.3
2509296.4
2509296.5
2509296.6
2509296.7
2509296.8
2509296.9
2509296.9
2509296.8
2509296.8
2509296.8
2509296.8
2509296.8
2509296.8
2509296.8
2509296.8
2509296.8
2509296.8
2509296.8
2509296.8
2509296.8
2509296.8
2509296.8
2509296.8
2509296.8
2509296.8
2509296.8
2509296.8
2509296.8
2509296.8
2509312.2
2509312.3
2509312.4
2509312.5
2509312.6
2509312.7
2509312.8
2509312.8
2509312.8
2509312.7
2509312.7
2509312.7
2509312.7
2509312.7
2509312.7
2509312.7
2509312.7
2509312.7
2509312.7
2509312.7
2509312.7
2509312.7
2509312.7
2509312.7
2509312.7
2509312.7
2509312.7
2509312.7
2509312.7
2509312.7
2509328.1
2509328.2
2509328.3
2509328.4
2509328.6
2509328.6
2509328.7
2509328.7
2509328.7
2509328.7
2509328.7
2509328.7
2509328.6
2509328.6
2509328.6
2509328.6
2509328.6
2509328.6
2509328.6
2509328.6
2509328.6
2509328.6
2509328.6
2509328.6
2509328.6
2509328.6
2509328.6
2509328.6
2509328.6
2509328.6
2509344
2509344.1
2509344.2
2509344.3
2509344.5
2509344.5
2509344.6
2509344.6
2509344.6
2509344.6
2509344.5
2509344.5
2509344.5
2509344.5
2509344.5
2509344.5
2509344.5
2509344.5
2509344.5
2509344.5
2509344.5
2509344.5
2509344.5
2509344.5
2509344.5
2509344.5
2509344.5
2509344.5
2509344.5
2509344.5
2509359.9
2509360
2509360.1
2509360.2
2509360.3
2509360.4
2509360.5
2509360.5
2509360.4
2509360.4
2509360.4
2509360.4
2509360.4
2509360.4
2509360.4
2509360.4
2509360.4
2509360.4
2509360.4
2509360.4
2509360.4
2509360.4
2509360.4
2509360.4
2509360.4
2509360.4
2509360.4
2509360.4
2509360.4
2509360.4
2509375.7
2509375.8
2509375.9
2509376
2509376.2
2509376.2
2509376.3
2509376.3
2509376.3
2509376.3
2509376.3
2509376.3
2509376.2
2509376.2
2509376.2
2509376.2
2509376.2
2509376.2
2509376.2
2509376.2
2509376.2
2509376.2
2509376.2
2509376.2
2509376.2
2509376.2
2509376.2
2509376.2
2509376.2
2509376.2
2509391.5
2509391.6
2509391.7
2509391.9
2509392
2509392.1
2509392.1
2509392.1
2509392.1
2509392.1
2509392.1
2509392.1
2509392.1
2509392.1
2509392.1
2509392.1
2509392.1
2509392.1
2509392.1
2509392.1
2509392.1
2509392.1
2509392.1
2509392.1
2509392.1
2509392.1
2509392.1
2509392.1
2509392.1
2509392.1
2509407.3
2509407.4
2509407.5
2509407.6
2509407.8
2509407.9
2509407.9
2509407.9
2509407.9
2509407.9
2509407.9
2509407.9
2509407.9
2509407.9
2509407.9
2509407.9
2509407.9
2509407.9
2509407.9
2509407.9
2509407.9
2509407.9
2509407.9
2509407.9
2509407.9
2509407.9
2509407.9
2509407.9
2509407.9
2509407.9
2509423.1
2509423.2
2509423.3
2509423.4
2509423.5
2509423.6
2509423.7
2509423.7
2509423.7
2509423.6
2509423.6
2509423.6
2509423.6
2509423.6
2509423.6
2509423.6
2509423.6
2509423.6
2509423.6
2509423.6
2509423.6
2509423.6
2509423.6
2509423.6
2509423.6
2509423.6
2509423.6
2509423.6
2509423.6
2509423.6
2509438.8
2509438.9
2509439
2509439.2
2509439.3
2509439.4
2509439.4
2509439.4
2509439.4
2509439.4
2509439.4
2509439.4
2509439.4
2509439.4
2509439.4
2509439.4
2509439.4
2509439.4
2509439.4
2509439.4
2509439.4
2509439.4
2509439.4
2509439.4
2509439.4
2509439.4
2509439.4
2509439.4
2509439.4
2509439.4
2509454.5
2509454.6
2509454.8
2509454.9
2509455
2509455.1
2509455.2
2509455.2
2509455.1
2509455.1
2509455.1
2509455.1
2509455.1
2509455.1
2509455.1
2509455.1
2509455.1
2509455.1
2509455.1
2509455.1
2509455.1
2509455.1
2509455.1
2509455.1
2509455.1
2509455.1
2509455.1
2509455.1
2509455.1
2509455.1
2509470.2
2509470.3
2509470.5
2509470.6
2509470.7
2509470.8
2509470.9
2509470.9
2509470.8
2509470.8
2509470.8
2509470.8
2509470.8
2509470.8
2509470.8
2509470.8
2509470.8
2509470.8
2509470.8
2509470.8
2509470.8
2509470.8
2509470.8
2509470.8
2509470.8
2509470.8
2509470.8
2509470.8
2509470.8
2509470.8
2509485.9
2509486
2509486.1
2509486.2
2509486.4
2509486.5
2509486.5
2509486.5
2509486.5
2509486.5
2509486.5
2509486.5
2509486.5
2509486.5
2509486.5
2509486.5
2509486.5
2509486.5
2509486.5
2509486.5
2509486.5
2509486.5
2509486.5
2509486.5
2509486.5
2509486.5
2509486.5
2509486.5
2509486.5
2509486.5
2509501.6
2509501.7
2509501.8
2509501.9
2509502
2509502.1
2509502.2
2509502.2
2509502.1
2509502.1
2509502.1
2509502.1
2509502.1
2509502.1
2509502.1
2509502.1
2509502.1
2509502.1
2509502.1
2509502.1
2509502.1
2509502.1
2509502.1
2509502.1
2509502.1
2509502.1
2509502.1
2509502.1
2509502.1
2509502.1
2509517.2
2509517.3
2509517.4
2509517.5
2509517.6
2509517.7
2509517.8
2509517.8
2509517.8
2509517.7
2509517.7
2509517.7
2509517.7
2509517.7
2509517.7
2509517.7
2509517.7
2509517.7
2509517.7
2509517.7
2509517.7
2509517.7
2509517.7
2509517.7
2509517.7
2509517.7
2509517.7
2509517.7
2509517.7
2509517.7
2509532.8
2509532.9
2509533
2509533.1
2509533.2
2509533.3
2509533.4
2509533.4
2509533.4
2509533.3
2509533.3
2509533.3
2509533.3
2509533.3
2509533.3
2509533.3
2509533.3
2509533.3
2509533.3
2509533.3
2509533.3
2509533.3
2509533.3
2509533.3
2509533.3
2509533.3
2509533.3
2509533.3
2509533.3
2509533.3
2509548.3
2509548.4
2509548.6
2509548.7
2509548.8
2509548.9
2509549
2509549
2509548.9
2509548.9
2509548.9
2509548.9
2509548.9
2509548.9
2509548.9
2509548.9
2509548.9
2509548.9
2509548.9
2509548.9
2509548.9
2509548.9
2509548.9
2509548.9
2509548.9
2509548.9
2509548.9
2509548.9
2509548.9
2509548.9
2509563.9
2509564
2509564.1
2509564.2
2509564.4
2509564.4
2509564.5
2509564.5
2509564.5
2509564.5
2509564.5
2509564.5
2509564.4
2509564.4
2509564.4
2509564.4
2509564.4
2509564.4
2509564.4
2509564.4
2509564.4
2509564.4
2509564.4
2509564.4
2509564.4
2509564.4
2509564.4
2509564.4
2509564.4
2509564.4
2509579.4
2509579.5
2509579.6
2509579.8
2509579.9
2509580
2509580
2509580
2509580
2509580
2509580
2509580
2509580
2509580
2509580
2509580
2509580
2509580
2509580
2509580
2509580
2509580
2509580
2509580
2509580
2509580
2509580
2509580
2509580
2509580
2509594.9
2509595
2509595.1
2509595.3
2509595.4
2509595.5
2509595.5
2509595.5
2509595.5
2509595.5
2509595.5
2509595.5
2509595.5
2509595.5
2509595.5
2509595.5
2509595.5
2509595.5
2509595.5
2509595.5
2509595.5
2509595.5
2509595.5
2509595.5
2509595.5
2509595.5
2509595.5
2509595.5
2509595.5
2509595.5
2509610.4
2509610.5
2509610.6
2509610.7
2509610.9
2509610.9
2509611
2509611
2509611
2509611
2509611
2509610.9
2509610.9
2509610.9
2509610.9
2509610.9
2509610.9
2509610.9
2509610.9
2509610.9
2509610.9
2509610.9
2509610.9
2509610.9
2509610.9
2509610.9
2509610.9
2509610.9
2509610.9
2509610.9
2509625.8
2509625.9
2509626.1
2509626.2
2509626.3
2509626.4
2509626.5
2509626.5
2509626.4
2509626.4
2509626.4
2509626.4
2509626.4
2509626.4
2509626.4
2509626.4
2509626.4
2509626.4
2509626.4
2509626.4
2509626.4
2509626.4
2509626.4
2509626.4
2509626.4
2509626.4
2509626.4
2509626.4
2509626.4
2509626.4
2509641.3
2509641.4
2509641.5
2509641.6
2509641.7
2509641.8
2509641.9
2509641.9
2509641.9
2509641.8
2509641.8
2509641.8
2509641.8
2509641.8
2509641.8
2509641.8
2509641.8
2509641.8
2509641.8
2509641.8
2509641.8
2509641.8
2509641.8
2509641.8
2509641.8
2509641.8
2509641.8
2509641.8
2509641.8
2509641.8
2509656.7
2509656.8
2509656.9
2509657
2509657.1
2509657.2
2509657.3
2509657.3
2509657.3
2509657.2
2509657.2
2509657.2
2509657.2
2509657.2
2509657.2
2509657.2
2509657.2
2509657.2
2509657.2
2509657.2
2509657.2
2509657.2
2509657.2
2509657.2
2509657.2
2509657.2
2509657.2
2509657.2
2509657.2
2509657.2
2509672
2509672.1
2509672.3
2509672.4
2509672.5
2509672.6
2509672.7
2509672.7
2509672.6
2509672.6
2509672.6
2509672.6
2509672.6
2509672.6
2509672.6
2509672.6
2509672.6
2509672.6
2509672.6
2509672.6
2509672.6
2509672.6
2509672.6
2509672.6
2509672.6
2509672.6
2509672.6
2509672.6
2509672.6
2509672.6
2509687.4
2509687.5
2509687.6
2509687.7
2509687.9
2509688
2509688
2509688
2509688
2509688
2509688
2509688
2509688
2509688
2509687.9
2509687.9
2509687.9
2509687.9
2509687.9
2509687.9
2509687.9
2509687.9
2509687.9
2509687.9
2509687.9
2509687.9
2509687.9
2509687.9
2509687.9
2509687.9
2509702.7
2509702.8
2509703
2509703.1
2509703.2
2509703.3
2509703.3
2509703.4
2509703.3
2509703.3
2509703.3
2509703.3
2509703.3
2509703.3
2509703.3
2509703.3
2509703.3
2509703.3
2509703.3
2509703.3
2509703.3
2509703.3
2509703.3
2509703.3
2509703.3
2509703.3
2509703.3
2509703.3
2509703.3
2509703.3
2509718
2509718.1
2509718.3
2509718.4
2509718.5
2509718.6
2509718.7
2509718.7
2509718.6
2509718.6
2509718.6
2509718.6
2509718.6
2509718.6
2509718.6
2509718.6
2509718.6
2509718.6
2509718.6
2509718.6
2509718.6
2509718.6
2509718.6
2509718.6
2509718.6
2509718.6
2509718.6
2509718.6
2509718.6
2509718.6
2509733.3
2509733.4
2509733.5
2509733.7
2509733.8
2509733.9
2509733.9
2509733.9
2509733.9
2509733.9
2509733.9
2509733.9
2509733.9
2509733.9
2509733.9
2509733.9
2509733.9
2509733.9
2509733.9
2509733.9
2509733.9
2509733.9
2509733.9
2509733.9
2509733.9
2509733.9
2509733.9
2509733.9
2509733.9
2509733.9
2509748.6
2509748.7
2509748.8
2509748.9
2509749
2509749.1
2509749.2
2509749.2
2509749.2
2509749.1
2509749.1
2509749.1
2509749.1
2509749.1
2509749.1
2509749.1
2509749.1
2509749.1
2509749.1
2509749.1
2509749.1
2509749.1
2509749.1
2509749.1
2509749.1
2509749.1
2509749.1
2509749.1
2509749.1
2509749.1
2509763.8
2509763.9
2509764
2509764.1
2509764.3
2509764.4
2509764.4
2509764.4
2509764.4
2509764.4
2509764.4
2509764.4
2509764.4
2509764.4
2509764.4
2509764.4
2509764.4
2509764.4
2509764.4
2509764.4
2509764.4
2509764.4
2509764.4
2509764.4
2509764.4
2509764.4
2509764.4
2509764.4
2509764.4
2509764.4
2509779
2509779.1
2509779.2
2509779.4
2509779.5
2509779.6
2509779.6
2509779.6
2509779.6
2509779.6
2509779.6
2509779.6
2509779.6
2509779.6
2509779.6
2509779.6
2509779.6
2509779.6
2509779.6
2509779.6
2509779.6
2509779.6
2509779.6
2509779.6
2509779.6
2509779.6
2509779.6
2509779.6
2509779.6
2509779.6
2509794.2
2509794.3
2509794.4
2509794.5
2509794.7
2509794.8
2509794.8
2509794.8
2509794.8
2509794.8
2509794.8
2509794.8
2509794.7
2509794.7
2509794.7
2509794.7
2509794.7
2509794.7
2509794.7
2509794.7
2509794.7
2509794.7
2509794.7
2509794.7
2509794.7
2509794.7
2509794.7
2509794.7
2509794.7
2509794.7
2509809.4
2509809.5
2509809.6
2509809.7
2509809.8
2509809.9
2509810
2509810
2509809.9
2509809.9
2509809.9
2509809.9
2509809.9
2509809.9
2509809.9
2509809.9
2509809.9
2509809.9
2509809.9
2509809.9
2509809.9
2509809.9
2509809.9
2509809.9
2509809.9
2509809.9
2509809.9
2509809.9
2509809.9
2509809.9
2509824.5
2509824.6
2509824.7
2509824.8
2509825
2509825
2509825.1
2509825.1
2509825.1
2509825.1
2509825.1
2509825
2509825
2509825
2509825
2509825
2509825
2509825
2509825
2509825
2509825
2509825
2509825
2509825
2509825
2509825
2509825
2509825
2509825
2509825
2509839.6
2509839.7
2509839.8
2509839.9
2509840.1
2509840.2
2509840.2
2509840.2
2509840.2
2509840.2
2509840.2
2509840.2
2509840.2
2509840.2
2509840.2
2509840.2
2509840.2
2509840.2
2509840.2
2509840.2
2509840.2
2509840.2
2509840.2
2509840.2
2509840.2
2509840.2
2509840.2
2509840.2
2509840.2
2509840.2
2509854.7
2509854.8
2509854.9
2509855
2509855.2
2509855.3
2509855.3
2509855.3
2509855.3
2509855.3
2509855.3
2509855.2
2509855.2
2509855.2
2509855.2
2509855.2
2509855.2
2509855.2
2509855.2
2509855.2
2509855.2
2509855.2
2509855.2
2509855.2
2509855.2
2509855.2
2509855.2
2509855.2
2509855.2
2509855.2
2509869.8
2509869.9
2509870
2509870.1
2509870.2
2509870.3
2509870.4
2509870.4
2509870.3
2509870.3
2509870.3
2509870.3
2509870.3
2509870.3
2509870.3
2509870.3
2509870.3
2509870.3
2509870.3
2509870.3
2509870.3
2509870.3
2509870.3
2509870.3
2509870.3
2509870.3
2509870.3
2509870.3
2509870.3
2509870.3
2509884.8
2509884.9
2509885
2509885.1
2509885.3
2509885.4
2509885.4
2509885.4
2509885.4
2509885.4
2509885.4
2509885.4
2509885.3
2509885.3
2509885.3
2509885.3
2509885.3
2509885.3
2509885.3
2509885.3
2509885.3
2509885.3
2509885.3
2509885.3
2509885.3
2509885.3
2509885.3
2509885.3
2509885.3
2509885.3
2509899.8
2509899.9
2509900
2509900.2
2509900.3
2509900.4
2509900.4
2509900.4
2509900.4
2509900.4
2509900.4
2509900.4
2509900.4
2509900.4
2509900.4
2509900.4
2509900.4
2509900.4
2509900.4
2509900.4
2509900.4
2509900.4
2509900.4
2509900.4
2509900.4
2509900.4
2509900.4
2509900.4
2509900.4
2509900.4
2509914.8
2509914.9
2509915
2509915.1
2509915.3
2509915.4
2509915.4
2509915.4
2509915.4
2509915.4
2509915.4
2509915.4
2509915.4
2509915.4
2509915.4
2509915.4
2509915.3
2509915.3
2509915.3
2509915.3
2509915.3
2509915.3
2509915.3
2509915.4
2509915.4
2509915.4
2509915.4
2509915.4
2509915.4
2509915.4
2509929.8
2509929.9
2509930
2509930.1
2509930.2
2509930.3
2509930.4
2509930.4
2509930.4
2509930.3
2509930.3
2509930.3
2509930.3
2509930.3
2509930.3
2509930.3
2509930.3
2509930.3
2509930.3
2509930.3
2509930.3
2509930.3
2509930.3
2509930.3
2509930.3
2509930.3
2509930.3
2509930.3
2509930.3
2509930.3
2509944.7
2509944.8
2509944.9
2509945.1
2509945.2
2509945.3
2509945.3
2509945.3
2509945.3
2509945.3
2509945.3
2509945.3
2509945.3
2509945.3
2509945.3
2509945.3
2509945.3
2509945.3
2509945.3
2509945.3
2509945.3
2509945.3
2509945.3
2509945.3
2509945.3
2509945.3
2509945.3
2509945.3
2509945.3
2509945.3
2509959.6
2509959.7
2509959.9
2509960
2509960.1
2509960.2
2509960.3
2509960.3
2509960.2
2509960.2
2509960.2
2509960.2
2509960.2
2509960.2
2509960.2
2509960.2
2509960.2
2509960.2
2509960.2
2509960.2
2509960.2
2509960.2
2509960.2
2509960.2
2509960.2
2509960.2
2509960.2
2509960.2
2509960.2
2509960.2
2509974.5
2509974.6
2509974.8
2509974.9
2509975
2509975.1
2509975.2
2509975.2
2509975.1
2509975.1
2509975.1
2509975.1
2509975.1
2509975.1
2509975.1
2509975.1
2509975.1
2509975.1
2509975.1
2509975.1
2509975.1
2509975.1
2509975.1
2509975.1
2509975.1
2509975.1
2509975.1
2509975.1
2509975.1
2509975.1
2509989.4
2509989.5
2509989.6
2509989.7
2509989.9
2509990
2509990
2509990
2509990
2509990
2509990
2509990
2509990
2509990
2509990
2509990
2509990
2509990
2509990
2509990
2509990
2509990
2509990
2509990
2509990
2509990
2509990
2509990
2509990
2509990
2510004.3
2510004.4
2510004.5
2510004.6
2510004.7
2510004.8
2510004.9
2510004.9
2510004.8
2510004.8
2510004.8
2510004.8
2510004.8
2510004.8
2510004.8
2510004.8
2510004.8
2510004.8
2510004.8
2510004.8
2510004.8
2510004.8
2510004.8
2510004.8
2510004.8
2510004.8
2510004.8
2510004.8
2510004.8
2510004.8
2510019.1
2510019.2
2510019.3
2510019.4
2510019.5
2510019.6
2510019.7
2510019.7
2510019.7
2510019.7
2510019.6
2510019.6
2510019.6
2510019.6
2510019.6
2510019.6
2510019.6
2510019.6
2510019.6
2510019.6
2510019.6
2510019.6
2510019.6
2510019.6
2510019.6
2510019.6
2510019.6
2510019.6
2510019.6
2510019.6
2510033.9
2510034
2510034.1
2510034.2
2510034.3
2510034.4
2510034.5
2510034.5
2510034.5
2510034.5
2510034.4
2510034.4
2510034.4
2510034.4
2510034.4
2510034.4
2510034.4
2510034.4
2510034.4
2510034.4
2510034.4
2510034.4
2510034.4
2510034.4
2510034.4
2510034.4
2510034.4
2510034.4
2510034.4
2510034.4
2510048.7
2510048.8
2510048.9
2510049
2510049.1
2510049.2
2510049.3
2510049.3
2510049.3
2510049.2
2510049.2
2510049.2
2510049.2
2510049.2
2510049.2
2510049.2
2510049.2
2510049.2
2510049.2
2510049.2
2510049.2
2510049.2
2510049.2
2510049.2
2510049.2
2510049.2
2510049.2
2510049.2
2510049.2
2510049.2
2510063.4
2510063.5
2510063.6
2510063.8
2510063.9
2510064
2510064
2510064
2510064
2510064
2510064
2510064
2510064
2510064
2510064
2510064
2510064
2510064
2510064
2510064
2510064
2510064
2510064
2510064
2510064
2510064
2510064
2510064
2510064
2510064
2510078.2
2510078.3
2510078.4
2510078.5
2510078.6
2510078.7
2510078.8
2510078.8
2510078.7
2510078.7
2510078.7
2510078.7
2510078.7
2510078.7
2510078.7
2510078.7
2510078.7
2510078.7
2510078.7
2510078.7
2510078.7
2510078.7
2510078.7
2510078.7
2510078.7
2510078.7
2510078.7
2510078.7
2510078.7
2510078.7
2510092.9
2510093
2510093.1
2510093.2
2510093.3
2510093.4
2510093.5
2510093.5
2510093.4
2510093.4
2510093.4
2510093.4
2510093.4
2510093.4
2510093.4
2510093.4
2510093.4
2510093.4
2510093.4
2510093.4
2510093.4
2510093.4
2510093.4
2510093.4
2510093.4
2510093.4
2510093.4
2510093.4
2510093.4
2510093.4
2510107.5
2510107.7
2510107.8
2510107.9
2510108
2510108.1
2510108.2
2510108.2
2510108.1
2510108.1
2510108.1
2510108.1
2510108.1
2510108.1
2510108.1
2510108.1
2510108.1
2510108.1
2510108.1
2510108.1
2510108.1
2510108.1
2510108.1
2510108.1
2510108.1
2510108.1
2510108.1
2510108.1
2510108.1
2510108.1
2510122.2
2510122.3
2510122.4
2510122.5
2510122.7
2510122.8
2510122.8
2510122.8
2510122.8
2510122.8
2510122.8
2510122.8
2510122.8
2510122.7
2510122.7
2510122.7
2510122.7
2510122.7
2510122.7
2510122.7
2510122.7
2510122.7
2510122.7
2510122.7
2510122.7
2510122.7
2510122.7
2510122.7
2510122.7
2510122.7
2510136.8
2510137
2510137.1
2510137.2
2510137.3
2510137.4
2510137.5
2510137.5
2510137.4
2510137.4
2510137.4
2510137.4
2510137.4
2510137.4
2510137.4
2510137.4
2510137.4
2510137.4
2510137.4
2510137.4
2510137.4
2510137.4
2510137.4
2510137.4
2510137.4
2510137.4
2510137.4
2510137.4
2510137.4
2510137.4
2510151.5
2510151.6
2510151.7
2510151.8
2510151.9
2510152
2510152.1
2510152.1
2510152
2510152
2510152
2510152
2510152
2510152
2510152
2510152
2510152
2510152
2510152
2510152
2510152
2510152
2510152
2510152
2510152
2510152
2510152
2510152
2510152
2510152
2510166.1
2510166.2
2510166.3
2510166.4
2510166.5
2510166.6
2510166.7
2510166.7
2510166.6
2510166.6
2510166.6
2510166.6
2510166.6
2510166.6
2510166.6
2510166.6
2510166.6
2510166.6
2510166.6
2510166.6
2510166.6
2510166.6
2510166.6
2510166.6
2510166.6
2510166.6
2510166.6
2510166.6
2510166.6
2510166.6
2510180.6
2510180.7
2510180.8
2510181
2510181.1
2510181.2
2510181.2
2510181.2
2510181.2
2510181.2
2510181.2
2510181.2
2510181.2
2510181.2
2510181.2
2510181.2
2510181.2
2510181.2
2510181.2
2510181.2
2510181.2
2510181.2
2510181.2
2510181.2
2510181.2
2510181.2
2510181.2
2510181.2
2510181.2
2510181.2
2510195.2
2510195.3
2510195.4
2510195.5
2510195.6
2510195.7
2510195.8
2510195.8
2510195.7
2510195.7
2510195.7
2510195.7
2510195.7
2510195.7
2510195.7
2510195.7
2510195.7
2510195.7
2510195.7
2510195.7
2510195.7
2510195.7
2510195.7
2510195.7
2510195.7
2510195.7
2510195.7
2510195.7
2510195.7
2510195.7
2510209.7
2510209.8
2510209.9
2510210
2510210.1
2510210.2
2510210.3
2510210.3
2510210.3
2510210.3
2510210.2
2510210.2
2510210.2
2510210.2
2510210.2
2510210.2
2510210.2
2510210.2
2510210.2
2510210.2
2510210.2
2510210.2
2510210.2
2510210.2
2510210.2
2510210.2
2510210.2
2510210.2
2510210.2
2510210.2
2510224.2
2510224.3
2510224.4
2510224.5
2510224.6
2510224.7
2510224.8
2510224.8
2510224.8
2510224.7
2510224.7
2510224.7
2510224.7
2510224.7
2510224.7
2510224.7
2510224.7
2510224.7
2510224.7
2510224.7
2510224.7
2510224.7
2510224.7
2510224.7
2510224.7
2510224.7
2510224.7
2510224.7
2510224.7
2510224.7
2510238.7
2510238.8
2510238.9
2510239
2510239.1
2510239.2
2510239.3
2510239.3
2510239.2
2510239.2
2510239.2
2510239.2
2510239.2
2510239.2
2510239.2
2510239.2
2510239.2
2510239.2
2510239.2
2510239.2
2510239.2
2510239.2
2510239.2
2510239.2
2510239.2
2510239.2
2510239.2
2510239.2
2510239.2
2510239.2
2510253.1
2510253.2
2510253.3
2510253.4
2510253.6
2510253.7
2510253.7
2510253.7
2510253.7
2510253.7
2510253.7
2510253.7
2510253.7
2510253.6
2510253.6
2510253.6
2510253.6
2510253.6
2510253.6
2510253.6
2510253.6
2510253.6
2510253.6
2510253.6
2510253.6
2510253.6
2510253.6
2510253.6
2510253.6
2510253.6
2510267.5
2510267.6
2510267.8
2510267.9
2510268
2510268.1
2510268.1
2510268.2
2510268.1
2510268.1
2510268.1
2510268.1
2510268.1
2510268.1
2510268.1
2510268.1
2510268.1
2510268.1
2510268.1
2510268.1
2510268.1
2510268.1
2510268.1
2510268.1
2510268.1
2510268.1
2510268.1
2510268.1
2510268.1
2510268.1
2510281.9
2510282.1
2510282.2
2510282.3
2510282.4
2510282.5
2510282.6
2510282.6
2510282.5
2510282.5
2510282.5
2510282.5
2510282.5
2510282.5
2510282.5
2510282.5
2510282.5
2510282.5
2510282.5
2510282.5
2510282.5
2510282.5
2510282.5
2510282.5
2510282.5
2510282.5
2510282.5
2510282.5
2510282.5
2510282.5
2510296.3
2510296.4
2510296.5
2510296.7
2510296.8
2510296.9
2510296.9
2510296.9
2510296.9
2510296.9
2510296.9
2510296.9
2510296.9
2510296.9
2510296.9
2510296.9
2510296.9
2510296.9
2510296.9
2510296.9
2510296.9
2510296.9
2510296.9
2510296.9
2510296.9
2510296.9
2510296.9
2510296.9
2510296.9
2510296.9
2510310.7
2510310.8
2510310.9
2510311
2510311.1
2510311.2
2510311.3
2510311.3
2510311.3
2510311.2
2510311.2
2510311.2
2510311.2
2510311.2
2510311.2
2510311.2
2510311.2
2510311.2
2510311.2
2510311.2
2510311.2
2510311.2
2510311.2
2510311.2
2510311.2
2510311.2
2510311.2
2510311.2
2510311.2
2510311.2
2510325
2510325.1
2510325.2
2510325.4
2510325.5
2510325.6
2510325.6
2510325.6
2510325.6
2510325.6
2510325.6
2510325.6
2510325.6
2510325.6
2510325.6
2510325.6
2510325.6
2510325.6
2510325.6
2510325.6
2510325.6
2510325.6
2510325.6
2510325.6
2510325.6
2510325.6
2510325.6
2510325.6
2510325.6
2510325.6
2510339.3
2510339.4
2510339.6
2510339.7
2510339.8
2510339.9
2510339.9
2510340
2510339.9
2510339.9
2510339.9
2510339.9
2510339.9
2510339.9
2510339.9
2510339.9
2510339.9
2510339.9
2510339.9
2510339.9
2510339.9
2510339.9
2510339.9
2510339.9
2510339.9
2510339.9
2510339.9
2510339.9
2510339.9
2510339.9
2510353.6
2510353.7
2510353.8
2510354
2510354.1
2510354.2
2510354.2
2510354.2
2510354.2
2510354.2
2510354.2
2510354.2
2510354.2
2510354.2
2510354.2
2510354.2
2510354.2
2510354.2
2510354.2
2510354.2
2510354.2
2510354.2
2510354.2
2510354.2
2510354.2
2510354.2
2510354.2
2510354.2
2510354.2
2510354.2
2510367.9
2510368
2510368.1
2510368.2
2510368.4
2510368.4
2510368.5
2510368.5
2510368.5
2510368.5
2510368.4
2510368.4
2510368.4
2510368.4
2510368.4
2510368.4
2510368.4
2510368.4
2510368.4
2510368.4
2510368.4
2510368.4
2510368.4
2510368.4
2510368.4
2510368.4
2510368.4
2510368.4
2510368.4
2510368.4
2510382.1
2510382.2
2510382.4
2510382.5
2510382.6
2510382.7
2510382.7
2510382.8
2510382.7
2510382.7
2510382.7
2510382.7
2510382.7
2510382.7
2510382.7
2510382.7
2510382.7
2510382.7
2510382.7
2510382.7
2510382.7
2510382.7
2510382.7
2510382.7
2510382.7
2510382.7
2510382.7
2510382.7
2510382.7
2510382.7
2510396.4
2510396.5
2510396.6
2510396.7
2510396.8
2510396.9
2510397
2510397
2510396.9
2510396.9
2510396.9
2510396.9
2510396.9
2510396.9
2510396.9
2510396.9
2510396.9
2510396.9
2510396.9
2510396.9
2510396.9
2510396.9
2510396.9
2510396.9
2510396.9
2510396.9
2510396.9
2510396.9
2510396.9
2510396.9
2510410.6
2510410.7
2510410.8
2510410.9
2510411
2510411.1
2510411.2
2510411.2
2510411.1
2510411.1
2510411.1
2510411.1
2510411.1
2510411.1
2510411.1
2510411.1
2510411.1
2510411.1
2510411.1
2510411.1
2510411.1
2510411.1
2510411.1
2510411.1
2510411.1
2510411.1
2510411.1
2510411.1
2510411.1
2510411.1
2510424.7
2510424.8
2510425
2510425.1
2510425.2
2510425.3
2510425.3
2510425.4
2510425.3
2510425.3
2510425.3
2510425.3
2510425.3
2510425.3
2510425.3
2510425.3
2510425.3
2510425.3
2510425.3
2510425.3
2510425.3
2510425.3
2510425.3
2510425.3
2510425.3
2510425.3
2510425.3
2510425.3
2510425.3
2510425.3
2510438.9
2510439
2510439.1
2510439.2
2510439.3
2510439.4
2510439.5
2510439.5
2510439.5
2510439.5
2510439.4
2510439.4
2510439.4
2510439.4
2510439.4
2510439.4
2510439.4
2510439.4
2510439.4
2510439.4
2510439.4
2510439.4
2510439.4
2510439.4
2510439.4
2510439.4
2510439.4
2510439.4
2510439.4
2510439.4
2510453
2510453.1
2510453.2
2510453.4
2510453.5
2510453.6
2510453.6
2510453.6
2510453.6
2510453.6
2510453.6
2510453.6
2510453.6
2510453.6
2510453.6
2510453.6
2510453.6
2510453.6
2510453.6
2510453.6
2510453.6
2510453.6
2510453.6
2510453.6
2510453.6
2510453.6
2510453.6
2510453.6
2510453.6
2510453.6
2510467.1
2510467.2
2510467.4
2510467.5
2510467.6
2510467.7
2510467.7
2510467.7
2510467.7
2510467.7
2510467.7
2510467.7
2510467.7
2510467.7
2510467.7
2510467.7
2510467.7
2510467.7
2510467.7
2510467.7
2510467.7
2510467.7
2510467.7
2510467.7
2510467.7
2510467.7
2510467.7
2510467.7
2510467.7
2510467.7
2510481.2
2510481.3
2510481.4
2510481.6
2510481.7
2510481.8
2510481.8
2510481.8
2510481.8
2510481.8
2510481.8
2510481.8
2510481.8
2510481.8
2510481.7
2510481.7
2510481.7
2510481.7
2510481.7
2510481.7
2510481.7
2510481.7
2510481.7
2510481.7
2510481.7
2510481.7
2510481.7
2510481.7
2510481.7
2510481.7
2510495.3
2510495.4
2510495.5
2510495.6
2510495.7
2510495.8
2510495.9
2510495.9
2510495.9
2510495.8
2510495.8
2510495.8
2510495.8
2510495.8