/*--------------------------------*- C++ -*----------------------------------*\
| =========                 |                                                 |
| \\      /  F ield         | OpenFOAM: The Open Source CFD Toolbox           |
|  \\    /   O peration     | Version:  v2012                                 |
|   \\  /    A nd           | Website:  www.openfoam.com                      |
|    \\/     M anipulation  |                                                 |
\*---------------------------------------------------------------------------*/
FoamFile
{
    version     2.0;
    format      ascii;
    class       surfaceScalarField;
    location    "300";
    object      phi;
}
// * * * * * * * * * * * * * * * * * * * * * * * * * * * * * * * * * * * * * //

dimensions      [1 0 -1 0 0 0 0];
oriented        oriented;


internalField   nonuniform List<scalar> 
47170
(
-7.1096477e-10
-3.8610643e-05
-9.6814327e-11
-3.2072236e-05
1.9069872e-09
-2.6034898e-05
4.3487636e-09
-2.0994214e-05
6.1209845e-09
-1.6654961e-05
2.7706953e-09
-1.2536438e-05
-9.2701843e-09
-8.4859949e-06
-1.7161224e-08
-5.1272647e-06
-1.6881868e-08
-3.1073878e-06
-1.4245001e-08
-2.0065127e-06
-1.156907e-08
-1.3608757e-06
-9.3778244e-09
-9.4721014e-07
-7.6415752e-09
-6.6109715e-07
-6.2225756e-09
-4.5947907e-07
-5.0223935e-09
-3.1894269e-07
-4.0089393e-09
-2.20439e-07
-3.165087e-09
-1.5157452e-07
-2.4718754e-09
-1.0365197e-07
-1.9024788e-09
-7.0460395e-08
-1.4342281e-09
-4.7590135e-08
-1.0508297e-09
-3.1911575e-08
-7.4308228e-10
-2.1209533e-08
-5.0328608e-10
-1.3935802e-08
-3.2368638e-10
-9.0168109e-09
-1.9500515e-10
-5.7110148e-09
-1.0756114e-10
-3.5072327e-09
-5.1991902e-11
-2.053604e-09
-1.9913836e-11
-1.108313e-09
-4.3663967e-12
-5.0549042e-10
-1.3157348e-10
-1.3504495e-09
-3.8609292e-05
-2.2551388e-09
-3.2071331e-05
-3.0129513e-09
-2.603414e-05
-4.2130599e-09
-2.0993013e-05
-6.1598969e-09
-1.6653014e-05
-8.6181399e-09
-1.253398e-05
-9.249576e-09
-8.4853631e-06
-6.993561e-09
-5.1295208e-06
-5.1397802e-09
-3.1092412e-06
-4.0750703e-09
-2.0075775e-06
-3.4196389e-09
-1.3615307e-06
-2.9332058e-09
-9.4769674e-07
-2.5360068e-09
-6.6149407e-07
-2.2322384e-09
-4.5978305e-07
-1.9742842e-09
-3.1920047e-07
-1.7369326e-09
-2.2067658e-07
-1.4987464e-09
-1.5181261e-07
-1.2558214e-09
-1.0389511e-07
-1.0147484e-09
-7.0701437e-08
-7.8820285e-10
-4.7816844e-08
-5.8689021e-10
-3.2112891e-08
-4.1800731e-10
-2.1378532e-08
-2.8352725e-10
-1.4070302e-08
-1.8192375e-10
-9.1184897e-09
-1.0897317e-10
-5.7839805e-09
-5.9570783e-11
-3.5566824e-09
-2.8329696e-11
-2.0848298e-09
-1.0536892e-11
-1.1261017e-09
-2.1795797e-12
-5.1384482e-10
-1.3375306e-10
-1.8276325e-09
-3.8607465e-05
-3.4779151e-09
-3.2069681e-05
-5.0061044e-09
-2.6032612e-05
-6.6902465e-09
-2.0991329e-05
-8.3307101e-09
-1.6651373e-05
-8.8433634e-09
-1.2533467e-05
-6.4981391e-09
-8.4877081e-06
-3.453026e-09
-5.132566e-06
-1.8711564e-09
-3.1108228e-06
-1.1965344e-09
-2.0082523e-06
-8.2176314e-10
-1.3619053e-06
-5.5155045e-10
-9.4796711e-07
-3.1205849e-10
-6.6173336e-07
-1.0515457e-10
-4.5999012e-07
7.3164248e-11
-3.1937861e-07
2.1076365e-10
-2.2081435e-07
2.9693678e-10
-1.5189865e-07
3.3132888e-10
-1.0392964e-07
3.2315903e-10
-7.069318e-08
2.8545997e-10
-4.7779257e-08
2.3292313e-10
-3.2060308e-08
1.7711481e-10
-2.1322794e-08
1.2612615e-10
-1.4019294e-08
8.3879689e-11
-9.076284e-09
5.167358e-11
-5.7517742e-09
2.8863906e-11
-3.5338858e-09
1.3987053e-11
-2.0699661e-09
5.293841e-12
-1.1174201e-09
1.1166133e-12
-5.0967585e-10
-1.3263645e-10
-2.3044929e-09
-3.860516e-05
-4.517694e-09
-3.2067468e-05
-6.47036e-09
-2.6030659e-05
-8.2392551e-09
-2.098956e-05
-9.3788667e-09
-1.6650234e-05
-8.743547e-09
-1.2534103e-05
-5.3830328e-09
-8.4910685e-06
-2.0271297e-09
-5.135922e-06
-5.0178236e-10
-3.112348e-06
-3.8868281e-11
-2.0087153e-06
8.0620471e-11
-1.3620246e-06
7.0041441e-11
-9.4795667e-07
2.3002184e-11
-6.6168614e-07
-2.6862651e-11
-4.5994039e-07
-6.4550523e-11
-3.1934075e-07
-8.9400857e-11
-2.2078964e-07
-1.0548482e-10
-1.5188243e-07
-1.1201167e-10
-1.0392325e-07
-1.0813639e-10
-7.0696968e-08
-9.6132408e-11
-4.779136e-08
-7.9065292e-11
-3.2077329e-08
-6.0704882e-11
-2.1341221e-08
-4.3508784e-11
-1.4036468e-08
-2.9137491e-11
-9.0906874e-09
-1.8028983e-11
-5.7628725e-09
-1.0133e-11
-3.5417987e-09
-4.9291225e-12
-2.0751559e-09
-1.8760872e-12
-1.1204683e-09
-3.9887631e-13
-5.1114964e-10
-1.3303533e-10
-2.6833862e-09
-3.8602477e-05
-5.2265134e-09
-3.2064925e-05
-7.3111812e-09
-2.6028574e-05
-8.9444691e-09
-2.0987927e-05
-9.6667299e-09
-1.6649511e-05
-8.4748392e-09
-1.2535295e-05
-4.8003388e-09
-8.4947429e-06
-1.3967644e-09
-5.1393256e-06
8.7729744e-11
-3.1138323e-06
4.9986663e-10
-2.0091276e-06
5.4726751e-10
-1.3620718e-06
4.6871405e-10
-9.4787823e-07
3.6535353e-10
-6.6158262e-07
2.762294e-10
-4.5985138e-07
2.0796155e-10
-3.1927233e-07
1.5740122e-10
-2.2073918e-07
1.205854e-10
-1.5184548e-07
9.2695702e-11
-1.0389544e-07
7.0940904e-11
-7.0675115e-08
5.3162961e-11
-4.7773644e-08
3.8794489e-11
-3.2062906e-08
2.723004e-11
-2.1329698e-08
1.8343972e-11
-1.4027561e-08
1.1702952e-11
-9.0840771e-09
7.0116746e-12
-5.7581866e-09
3.8424919e-12
-3.5386475e-09
1.8415286e-12
-2.0731731e-09
6.9266328e-13
-1.1193372e-09
1.4349022e-13
-5.1061304e-10
-1.3289184e-10
-2.9712037e-09
-3.8599506e-05
-5.714214e-09
-3.2062182e-05
-7.8284324e-09
-2.602646e-05
-9.3262612e-09
-2.0986429e-05
-9.7991553e-09
-1.6649038e-05
-8.3514182e-09
-1.2536742e-05
-4.5685359e-09
-8.4985257e-06
-1.1462078e-09
-5.142748e-06
3.4231631e-10
-3.1153207e-06
7.5360882e-10
-2.0095389e-06
7.6681132e-10
-1.3620849e-06
6.4350244e-10
-9.4775503e-07
4.9363212e-10
-6.6143261e-07
3.6119318e-10
-4.5971905e-07
2.5604069e-10
-3.1916704e-07
1.7654886e-10
-2.2065978e-07
1.1893279e-10
-1.5178774e-07
7.8069815e-11
-1.0385466e-07
5.0144581e-11
-7.064711e-08
3.138939e-11
-4.7754953e-08
1.9279589e-11
-3.2050755e-08
1.1515544e-11
-2.1321984e-08
6.7340383e-12
-1.4022766e-08
3.7813055e-12
-9.0811548e-09
2.0405646e-12
-5.756444e-09
1.0121782e-12
-3.5376368e-09
4.5388085e-13
-2.0726111e-09
1.618199e-13
-1.119047e-09
3.2523834e-14
-5.1048505e-10
-1.3285931e-10
-3.1826704e-09
-3.8596323e-05
-6.0464031e-09
-3.2059318e-05
-8.1554655e-09
-2.6024351e-05
-9.5547752e-09
-2.098503e-05
-9.8887607e-09
-1.6648704e-05
-8.3183477e-09
-1.2538313e-05
-4.4838523e-09
-8.5023601e-06
-1.0414844e-09
-5.1461904e-06
4.7771273e-10
-3.1168398e-06
8.8324565e-10
-2.0099446e-06
8.7888888e-10
-1.3620804e-06
7.3670237e-10
-9.4761293e-07
5.6774466e-10
-6.6126353e-07
4.1852798e-10
-4.5956992e-07
2.998999e-10
-3.1904829e-07
2.1021802e-10
-2.2057018e-07
1.4502019e-10
-1.5172244e-07
9.8469526e-11
-1.0380818e-07
6.6035911e-11
-7.0614607e-08
4.3569049e-11
-4.7732543e-08
2.8331799e-11
-3.2035478e-08
1.7995926e-11
-2.1311682e-08
1.1156923e-11
-1.4015906e-08
6.6436801e-12
-9.0766609e-09
3.7698095e-12
-5.7535648e-09
1.9790427e-12
-3.53585e-09
9.1685859e-13
-2.0715549e-09
3.3692458e-13
-1.1184722e-09
6.9206374e-14
-5.1022096e-10
-1.3279011e-10
-3.3374743e-09
-3.8592986e-05
-6.2783898e-09
-3.2056377e-05
-8.3775237e-09
-2.6022252e-05
-9.7152208e-09
-2.0983692e-05
-9.9734011e-09
-1.6648446e-05
-8.3382965e-09
-1.2539948e-05
-4.469087e-09
-8.5062292e-06
-1.0037204e-09
-5.1496558e-06
5.4016271e-10
-3.1183836e-06
9.4456734e-10
-2.010349e-06
9.3327342e-10
-1.362069e-06
7.8217929e-10
-9.4746192e-07
6.0350132e-10
-6.6108473e-07
4.4530099e-10
-4.594118e-07
3.1911213e-10
-3.1892199e-07
2.2345898e-10
-2.2047461e-07
1.5372802e-10
-1.5165263e-07
1.0390628e-10
-1.0375844e-07
6.9221181e-11
-7.0579866e-08
4.5309247e-11
-4.7708689e-08
2.9190831e-11
-3.201933e-08
1.8363941e-11
-2.1300893e-08
1.1268919e-11
-1.4008796e-08
6.6451245e-12
-9.0720531e-09
3.7320755e-12
-5.750643e-09
1.9277322e-12
-3.5340536e-09
8.8722541e-13
-2.0705016e-09
3.2404005e-13
-1.1179026e-09
6.8078154e-14
-5.0996045e-10
-1.3272203e-10
-3.4522093e-09
-3.8589534e-05
-6.4463235e-09
-3.2053383e-05
-8.5396026e-09
-2.6020158e-05
-9.8417857e-09
-2.098239e-05
-1.0058061e-08
-1.664823e-05
-8.3847883e-09
-1.2541621e-05
-4.4875553e-09
-8.5101264e-06
-9.9740787e-10
-5.153146e-06
5.642162e-10
-3.1199451e-06
9.732921e-10
-2.0107582e-06
9.6048746e-10
-1.3620561e-06
8.0576278e-10
-9.4730726e-07
6.2256896e-10
-6.6090143e-07
4.6001549e-10
-4.5924931e-07
3.3007803e-10
-3.1879194e-07
2.3143987e-10
-2.2037603e-07
1.5941112e-10
-1.515805e-07
1.0791076e-10
-1.0370698e-07
7.1996999e-11
-7.0543879e-08
4.7217391e-11
-4.7683946e-08
3.0486229e-11
-3.2002557e-08
1.9237471e-11
-2.1289671e-08
1.1848982e-11
-1.4001393e-08
7.0231346e-12
-9.0672498e-09
3.9696317e-12
-5.7475945e-09
2.0795967e-12
-3.5321779e-09
9.6416328e-13
-2.069401e-09
3.5405947e-13
-1.117307e-09
7.1232348e-14
-5.0968795e-10
-1.326508e-10
-3.5393725e-09
-3.8585994e-05
-6.5736074e-09
-3.2050349e-05
-8.6663406e-09
-2.6018065e-05
-9.9494521e-09
-2.0981107e-05
-1.0141959e-08
-1.6648037e-05
-8.4438942e-09
-1.2543319e-05
-4.5225331e-09
-8.5140477e-06
-1.0071799e-09
-5.1566614e-06
5.6856098e-10
-3.1215208e-06
9.8484986e-10
-2.0111745e-06
9.732359e-10
-1.3620444e-06
8.1733985e-10
-9.4715143e-07
6.3207473e-10
-6.6071606e-07
4.6734209e-10
-4.5908464e-07
3.3546241e-10
-3.1865996e-07
2.3524686e-10
-2.2027586e-07
1.6199592e-10
-1.5150716e-07
1.0959972e-10
-1.0365463e-07
7.3055595e-11
-7.0507273e-08
4.7857122e-11
-4.7658788e-08
3.084772e-11
-3.1985517e-08
1.9425499e-11
-2.1278283e-08
1.1931553e-11
-1.3993889e-08
7.0475099e-12
-9.0623882e-09
3.9662215e-12
-5.744513e-09
2.0590485e-12
-3.5302842e-09
9.5040722e-13
-2.0682909e-09
3.4793358e-13
-1.1167068e-09
7.1781835e-14
-5.0941338e-10
-1.3257901e-10
-3.6078248e-09
-3.8582387e-05
-6.6748341e-09
-3.2047282e-05
-8.7713199e-09
-2.6015969e-05
-1.00452e-08
-2.0979833e-05
-1.0223706e-08
-1.6647859e-05
-8.5080947e-09
-1.2545035e-05
-4.5652554e-09
-8.5179905e-06
-1.0249238e-09
-5.1602018e-06
5.6312708e-10
-3.1231088e-06
9.876725e-10
-2.0115991e-06
9.7856359e-10
-1.3620352e-06
8.2268131e-10
-9.469956e-07
6.3659477e-10
-6.6052988e-07
4.7086374e-10
-4.5891896e-07
3.3803941e-10
-3.1852703e-07
2.3704136e-10
-2.2017492e-07
1.6318019e-10
-1.5143321e-07
1.1035472e-10
-1.0360185e-07
7.3506492e-11
-7.0470369e-08
4.8115456e-11
-4.7633435e-08
3.0984288e-11
-3.1968354e-08
1.9498385e-11
-2.1266822e-08
1.1967849e-11
-1.3986343e-08
7.0683956e-12
-9.0575033e-09
3.978058e-12
-5.7414194e-09
2.0742422e-12
-3.5283844e-09
9.5631577e-13
-2.0671779e-09
3.5022665e-13
-1.1161053e-09
7.1904506e-14
-5.091383e-10
-1.3250711e-10
-3.6635736e-09
-3.8578723e-05
-6.759071e-09
-3.2044187e-05
-8.8621551e-09
-2.6013866e-05
-1.0132503e-08
-2.0978562e-05
-1.0302399e-08
-1.6647689e-05
-8.5733843e-09
-1.2546764e-05
-4.6112858e-09
-8.5219525e-06
-1.0465699e-09
-5.1637666e-06
5.5275463e-10
-3.124708e-06
9.8624444e-10
-2.0120327e-06
9.7996876e-10
-1.3620289e-06
8.2464051e-10
-9.4684033e-07
6.3837638e-10
-6.6034352e-07
4.7226163e-10
-4.587529e-07
3.3902823e-10
-3.1839371e-07
2.3768833e-10
-2.2007363e-07
1.6355656e-10
-1.5135901e-07
1.1054447e-10
-1.0354889e-07
7.3574253e-11
-7.0433352e-08
4.8117779e-11
-4.7608019e-08
3.0948803e-11
-3.1951161e-08
1.9450215e-11
-2.1255349e-08
1.1915142e-11
-1.3978797e-08
7.0229261e-12
-9.0526228e-09
3.940562e-12
-5.7383312e-09
2.0395712e-12
-3.5264894e-09
9.3844143e-13
-2.0660685e-09
3.429559e-13
-1.1155059e-09
7.1655902e-14
-5.0886423e-10
-1.3243545e-10
-3.7106804e-09
-3.8575012e-05
-6.8319143e-09
-3.2041065e-05
-8.9432944e-09
-2.6011754e-05
-1.0213224e-08
-2.0977292e-05
-1.0377779e-08
-1.6647524e-05
-8.6378524e-09
-1.2548504e-05
-4.65834e-09
-8.525932e-06
-1.0698258e-09
-5.1673551e-06
5.4020467e-10
-3.126318e-06
9.8266357e-10
-2.0124752e-06
9.7916303e-10
-1.3620253e-06
8.2463293e-10
-9.4668584e-07
6.3853572e-10
-6.6015734e-07
4.7238824e-10
-4.5858679e-07
3.3904923e-10
-3.1826028e-07
2.3762827e-10
-2.1997225e-07
1.6343679e-10
-1.5128474e-07
1.1041555e-10
-1.034959e-07
7.3452829e-11
-7.039633e-08
4.8022187e-11
-4.7582615e-08
3.0886434e-11
-3.1933991e-08
1.9419054e-11
-2.1243902e-08
1.1911145e-11
-1.3971275e-08
7.0345031e-12
-9.0477627e-09
3.9603661e-12
-5.7352588e-09
2.0666446e-12
-3.5246056e-09
9.5486896e-13
-2.0649663e-09
3.5000847e-13
-1.1149107e-09
7.1100492e-14
-5.0859218e-10
-1.3236435e-10
-3.7518034e-09
-3.8571261e-05
-6.8969344e-09
-3.203792e-05
-9.0174974e-09
-2.6009634e-05
-1.0288748e-08
-2.0976021e-05
-1.0449764e-08
-1.6647363e-05
-8.7007341e-09
-1.2550253e-05
-4.705175e-09
-8.5299275e-06
-1.0937057e-09
-5.1709666e-06
5.2692361e-10
-3.1279386e-06
9.7803311e-10
-2.0129263e-06
9.7729857e-10
-1.3620245e-06
8.2368463e-10
-9.4653227e-07
6.3791611e-10
-6.5997149e-07
4.7191395e-10
-4.5842083e-07
3.3863489e-10
-3.1812693e-07
2.3726114e-10
-2.1987091e-07
1.6310433e-10
-1.5121051e-07
1.1012338e-10
-1.0344295e-07
7.3200586e-11
-7.0359358e-08
4.7817482e-11
-4.7557262e-08
3.0718304e-11
-3.1916867e-08
1.9287456e-11
-2.1232496e-08
1.180699e-11
-1.3963786e-08
6.9571225e-12
-9.042928e-09
3.9044708e-12
-5.7322047e-09
2.0243696e-12
-3.5227344e-09
9.3239407e-13
-2.0638721e-09
3.4101793e-13
-1.11432e-09
7.0564913e-14
-5.0832223e-10
-1.3229379e-10
-3.788747e-09
-3.8567472e-05
-6.9563874e-09
-3.2034753e-05
-9.0865659e-09
-2.6007504e-05
-1.0360075e-08
-2.0974748e-05
-1.0518397e-08
-1.6647205e-05
-8.7617845e-09
-1.2552009e-05
-4.7515916e-09
-8.5339376e-06
-1.1176727e-09
-5.1746005e-06
5.1332353e-10
-3.1295695e-06
9.7310628e-10
-2.0133861e-06
9.751281e-10
-1.3620264e-06
8.2240847e-10
-9.4637958e-07
6.3699601e-10
-6.5978601e-07
4.7120002e-10
-4.5825507e-07
3.3804225e-10
-3.179937e-07
2.3676384e-10
-2.1976967e-07
1.6267762e-10
-1.5113636e-07
1.0977327e-10
-1.0339008e-07
7.2910777e-11
-7.0322454e-08
4.7592548e-11
-4.7531969e-08
3.0546181e-11
-3.1899796e-08
1.9167632e-11
-2.1221133e-08
1.1726377e-11
-1.3956331e-08
6.9086263e-12
-9.0381194e-09
3.8773013e-12
-5.7291695e-09
2.0168125e-12
-3.5208759e-09
9.2803744e-13
-2.0627859e-09
3.3950963e-13
-1.113734e-09
6.9986287e-14
-5.0805444e-10
-1.322238e-10
-3.8227201e-09
-3.8563649e-05
-7.0117278e-09
-3.2031564e-05
-9.1516452e-09
-2.6005364e-05
-1.0427822e-08
-2.0973471e-05
-1.0584187e-08
-1.6647048e-05
-8.8210909e-09
-1.2553773e-05
-4.7970963e-09
-8.5379616e-06
-1.1414439e-09
-5.1782562e-06
4.9978958e-10
-3.1312107e-06
9.6820747e-10
-2.0138546e-06
9.7294506e-10
-1.3620311e-06
8.2108175e-10
-9.4622775e-07
6.3603009e-10
-6.5960089e-07
4.7045541e-10
-4.5808953e-07
3.3744832e-10
-3.1786063e-07
2.3628762e-10
-2.1966855e-07
1.6228903e-10
-1.5106231e-07
1.0946129e-10
-1.0333729e-07
7.2659502e-11
-7.0285619e-08
4.739919e-11
-4.7506736e-08
3.0394663e-11
-3.1882774e-08
1.9055247e-11
-2.1209811e-08
1.1639743e-11
-1.3948908e-08
6.8479274e-12
-9.0333339e-09
3.8337952e-12
-5.7261506e-09
1.9834109e-12
-3.5190284e-09
9.1112015e-13
-2.0617065e-09
3.3278522e-13
-1.1131517e-09
6.9540143e-14
-5.0778841e-10
-1.3215426e-10
-3.8545232e-09
-3.8559795e-05
-7.0639984e-09
-3.2028354e-05
-9.2136474e-09
-2.6003214e-05
-1.0492589e-08
-2.0972193e-05
-1.0647572e-08
-1.6646893e-05
-8.8786508e-09
-1.2555541e-05
-4.8417966e-09
-8.5419984e-06
-1.1646947e-09
-5.1819333e-06
4.8715548e-10
-3.1328625e-06
9.6354042e-10
-2.014331e-06
9.7070682e-10
-1.3620382e-06
8.1967857e-10
-9.4607675e-07
6.3496815e-10
-6.5941612e-07
4.6962452e-10
-4.5792421e-07
3.3678114e-10
-3.1772772e-07
2.3576115e-10
-2.1956755e-07
1.6187542e-10
-1.5098837e-07
1.0915326e-10
-1.0328458e-07
7.243944e-11
-7.0248857e-08
4.7248283e-11
-4.7481563e-08
3.0305573e-11
-3.1865801e-08
1.9006361e-11
-2.1198527e-08
1.1626149e-11
-1.3941514e-08
6.8501386e-12
-9.0285704e-09
3.8469614e-12
-5.7231473e-09
2.0024978e-12
-3.5171913e-09
9.2337508e-13
-2.0606337e-09
3.3809571e-13
-1.1125731e-09
6.9059026e-14
-5.0752414e-10
-1.320852e-10
-3.8846496e-09
-3.855591e-05
-7.1139937e-09
-3.2025125e-05
-9.2732213e-09
-2.6001055e-05
-1.0555081e-08
-2.0970911e-05
-1.0708969e-08
-1.6646739e-05
-8.934569e-09
-1.2557316e-05
-4.885573e-09
-8.5460474e-06
-1.1874667e-09
-5.1856314e-06
4.7569899e-10
-3.1345256e-06
9.5929082e-10
-2.0148146e-06
9.6858628e-10
-1.3620475e-06
8.1834485e-10
-9.4592653e-07
6.339604e-10
-6.5923168e-07
4.6884368e-10
-4.5775912e-07
3.3616784e-10
-3.1759498e-07
2.3528615e-10
-2.1946669e-07
1.6150544e-10
-1.5091453e-07
1.0886935e-10
-1.0323197e-07
7.2220015e-11
-7.0212168e-08
4.7084711e-11
-4.7456449e-08
3.0178623e-11
-3.1848874e-08
1.8912345e-11
-2.1187278e-08
1.1552936e-11
-1.3934147e-08
6.7975514e-12
-9.0238259e-09
3.808903e-12
-5.7201571e-09
1.974133e-12
-3.5153629e-09
9.0826395e-13
-2.0595662e-09
3.3206346e-13
-1.1119975e-09
6.8718511e-14
-5.0726122e-10
-1.3201649e-10
-3.9135187e-09
-3.8551997e-05
-7.1622076e-09
-3.2021876e-05
-9.3307869e-09
-2.5998886e-05
-1.0615729e-08
-2.0969626e-05
-1.0768717e-08
-1.6646586e-05
-8.9891597e-09
-1.2559095e-05
-4.9285595e-09
-8.550108e-06
-1.2098136e-09
-5.1893502e-06
4.6516452e-10
-3.1362005e-06
9.5544052e-10
-2.0153049e-06
9.6674639e-10
-1.3620587e-06
8.1718029e-10
-9.4577699e-07
6.3306248e-10
-6.5904752e-07
4.6813129e-10
-4.5759421e-07
3.3559489e-10
-3.1746239e-07
2.3483501e-10
-2.1936595e-07
1.6114612e-10
-1.508408e-07
1.0859291e-10
-1.0317944e-07
7.200306e-11
-7.0175545e-08
4.69242e-11
-4.7431387e-08
3.0058963e-11
-3.1831989e-08
1.8831282e-11
-2.1176061e-08
1.149869e-11
-1.3926804e-08
6.7649906e-12
-9.0190984e-09
3.7903517e-12
-5.7171787e-09
1.9684206e-12
-3.5135423e-09
9.0480221e-13
-2.0585035e-09
3.3080743e-13
-1.1114247e-09
6.8373621e-14
-5.0699959e-10
-1.3194811e-10
-3.9414171e-09
-3.8548055e-05
-7.2090818e-09
-3.2018608e-05
-9.3866523e-09
-2.5996709e-05
-1.0674741e-08
-2.0968338e-05
-1.0826874e-08
-1.6646434e-05
-9.0425586e-09
-1.256088e-05
-4.9708382e-09
-8.5541796e-06
-1.2317201e-09
-5.1930893e-06
4.5530137e-10
-3.1378875e-06
9.5170528e-10
-2.0158013e-06
9.6513842e-10
-1.3620721e-06
8.1614842e-10
-9.4562801e-07
6.3226116e-10
-6.5886358e-07
4.6750217e-10
-4.5742947e-07
3.3510255e-10
-3.1732995e-07
2.344564e-10
-2.1926533e-07
1.6085588e-10
-1.5076716e-07
1.0837349e-10
-1.0312698e-07
7.1835468e-11
-7.0138981e-08
4.6801031e-11
-4.7406371e-08
2.9964887e-11
-3.1815139e-08
1.8763708e-11
-2.1164871e-08
1.1446733e-11
-1.391948e-08
6.7294949e-12
-9.0143852e-09
3.7647801e-12
-5.7142102e-09
1.9488949e-12
-3.5117282e-09
8.9500509e-13
-2.0574449e-09
3.2691983e-13
-1.110854e-09
6.8116584e-14
-5.0673897e-10
-1.3188e-10
-3.9685369e-09
-3.8544087e-05
-7.2548681e-09
-3.2015322e-05
-9.4411161e-09
-2.5994522e-05
-1.0732396e-08
-2.0967046e-05
-1.0883641e-08
-1.6646283e-05
-9.0950556e-09
-1.2562668e-05
-5.0124118e-09
-8.5582623e-06
-1.2532661e-09
-5.1968485e-06
4.4598596e-10
-3.1395868e-06
9.482008e-10
-2.0163035e-06
9.6365277e-10
-1.3620875e-06
8.1518121e-10
-9.4547956e-07
6.3146933e-10
-6.5867983e-07
4.6686886e-10
-4.5726488e-07
3.3459464e-10
-3.1719763e-07
2.340587e-10
-2.191648e-07
1.6054934e-10
-1.506936e-07
1.0814904e-10
-1.0307459e-07
7.1676973e-11
-7.0102471e-08
4.6692993e-11
-4.7381397e-08
2.9900273e-11
-3.1798322e-08
1.8726559e-11
-2.1153707e-08
1.1433496e-11
-1.3912175e-08
6.7267332e-12
-9.0096857e-09
3.7699162e-12
-5.7112513e-09
1.9581829e-12
-3.5099204e-09
9.0100991e-13
-2.0563902e-09
3.2954115e-13
-1.1102856e-09
6.7824017e-14
-5.0647942e-10
-1.3181217e-10
-3.9949558e-09
-3.8540092e-05
-7.2996979e-09
-3.2012017e-05
-9.4944552e-09
-2.5992328e-05
-1.0789001e-08
-2.0965752e-05
-1.0939341e-08
-1.6646133e-05
-9.1465881e-09
-1.2564461e-05
-5.0536199e-09
-8.5623552e-06
-1.274518e-09
-5.2006276e-06
4.3704184e-10
-3.1412983e-06
9.4519011e-10
-2.0168117e-06
9.6234465e-10
-1.3621046e-06
8.1435274e-10
-9.4533158e-07
6.3079453e-10
-6.5849623e-07
4.6632488e-10
-4.5710042e-07
3.3416553e-10
-3.1706542e-07
2.3372753e-10
-2.1906438e-07
1.6029633e-10
-1.5062013e-07
1.0796099e-10
-1.0302227e-07
7.153656e-11
-7.0066017e-08
4.6592227e-11
-4.7356467e-08
2.9824116e-11
-3.1781537e-08
1.8672085e-11
-2.1142566e-08
1.1391418e-11
-1.3904887e-08
6.6976579e-12
-9.0049981e-09
3.7489866e-12
-5.7083004e-09
1.9429716e-12
-3.5081178e-09
8.9309212e-13
-2.0553386e-09
3.2640283e-13
-1.109719e-09
6.7624051e-14
-5.0622067e-10
-1.3174455e-10
-4.0207923e-09
-3.8536071e-05
-7.3437917e-09
-3.2008694e-05
-9.5468332e-09
-2.5990125e-05
-1.0844711e-08
-2.0964454e-05
-1.0994195e-08
-1.6645983e-05
-9.1973839e-09
-1.2566258e-05
-5.0942121e-09
-8.5664584e-06
-1.295509e-09
-5.2044263e-06
4.2846846e-10
-3.1430222e-06
9.4233134e-10
-2.0173256e-06
9.6112766e-10
-1.3621234e-06
8.1360054e-10
-9.4518407e-07
6.3018332e-10
-6.5831277e-07
4.6581558e-10
-4.5693607e-07
3.3374863e-10
-3.1693332e-07
2.3339747e-10
-2.1896404e-07
1.6003349e-10
-1.5054673e-07
1.0776007e-10
-1.0297001e-07
7.1379983e-11
-7.002961e-08
4.647783e-11
-4.7331575e-08
2.9739432e-11
-3.1764782e-08
1.8614903e-11
-2.1131447e-08
1.1352977e-11
-1.3897616e-08
6.6739959e-12
-9.0003223e-09
3.73506e-12
-5.7053575e-09
1.9375616e-12
-3.5063205e-09
8.8979791e-13
-2.0542903e-09
3.2515087e-13
-1.1091541e-09
6.7393976e-14
-5.0596278e-10
-1.3167715e-10
-4.0461886e-09
-3.8532025e-05
-7.387339e-09
-3.2005353e-05
-9.5983895e-09
-2.5987913e-05
-1.0899655e-08
-2.0963153e-05
-1.1048439e-08
-1.6645834e-05
-9.2475551e-09
-1.2568059e-05
-5.1345206e-09
-8.5705714e-06
-1.3161817e-09
-5.2082446e-06
4.2030161e-10
-3.1447587e-06
9.3957142e-10
-2.0178448e-06
9.6013132e-10
-1.3621439e-06
8.1304557e-10
-9.4503699e-07
6.2972456e-10
-6.5812942e-07
4.654361e-10
-4.567718e-07
3.3345034e-10
-3.1680129e-07
2.3317324e-10
-2.1886378e-07
1.5986572e-10
-1.5047339e-07
1.0763658e-10
-1.0291779e-07
7.1286927e-11
-6.999324e-08
4.6410258e-11
-4.730671e-08
2.968758e-11
-3.1748049e-08
1.8578196e-11
-2.1120345e-08
1.1324074e-11
-1.3890357e-08
6.6548972e-12
-8.9956549e-09
3.7209901e-12
-5.7024206e-09
1.9270238e-12
-3.504527e-09
8.8461511e-13
-2.0532444e-09
3.2310864e-13
-1.1085906e-09
6.7244771e-14
-5.0570548e-10
-1.3160991e-10
-4.0712388e-09
-3.8527954e-05
-7.4303518e-09
-3.2001994e-05
-9.6493812e-09
-2.5985694e-05
-1.0953998e-08
-2.0961848e-05
-1.1102164e-08
-1.6645686e-05
-9.297195e-09
-1.2569864e-05
-5.1744137e-09
-8.5746941e-06
-1.3368186e-09
-5.2120822e-06
4.1216756e-10
-3.1465077e-06
9.3703406e-10
-2.0183697e-06
9.593481e-10
-1.3621662e-06
8.1262052e-10
-9.4489027e-07
6.2933281e-10
-6.579461e-07
4.6509234e-10
-4.5660756e-07
3.3316266e-10
-3.1666932e-07
2.3294587e-10
-2.1876356e-07
1.5968984e-10
-1.5040009e-07
1.0750641e-10
-1.0286562e-07
7.1196218e-11
-6.9956897e-08
4.6346587e-11
-4.7281867e-08
2.9651424e-11
-3.1731331e-08
1.8555762e-11
-2.1109255e-08
1.1317626e-11
-1.3883107e-08
6.6528346e-12
-8.9909949e-09
3.7243702e-12
-5.6994888e-09
1.932064e-12
-3.5027371e-09
8.8800094e-13
-2.0522007e-09
3.2458072e-13
-1.1080284e-09
6.7068313e-14
-5.054488e-10
-1.3154284e-10
-4.0959672e-09
-3.8523858e-05
-7.4728583e-09
-3.1998617e-05
-9.6999696e-09
-2.5983467e-05
-1.1007875e-08
-2.096054e-05
-1.1155229e-08
-1.6645539e-05
-9.3466591e-09
-1.2571672e-05
-5.2141171e-09
-8.5788267e-06
-1.3571796e-09
-5.2159392e-06
4.0432227e-10
-3.1482691e-06
9.3473865e-10
-2.0189001e-06
9.586246e-10
-1.3621901e-06
8.1222664e-10
-9.4474388e-07
6.2898726e-10
-6.5776282e-07
4.6479735e-10
-4.5644338e-07
3.3292847e-10
-3.1653742e-07
2.3277017e-10
-2.1866341e-07
1.5956126e-10
-1.5032685e-07
1.0741465e-10
-1.0281348e-07
7.1130027e-11
-6.9920585e-08
4.6300625e-11
-4.7257047e-08
2.9616005e-11
-3.1714631e-08
1.8530842e-11
-2.1098178e-08
1.1297559e-11
-1.3875866e-08
6.6397369e-12
-8.9863414e-09
3.714823e-12
-5.6965615e-09
1.9255285e-12
-3.5009502e-09
8.8477776e-13
-2.0511588e-09
3.2332885e-13
-1.1074671e-09
6.695692e-14
-5.0519258e-10
-1.3147588e-10
-4.1204163e-09
-3.8519737e-05
-7.5149219e-09
-3.1995223e-05
-9.7502099e-09
-2.5981232e-05
-1.1061343e-08
-2.0959229e-05
-1.1207909e-08
-1.6645392e-05
-9.3956506e-09
-1.2573485e-05
-5.2536179e-09
-8.5829687e-06
-1.3775126e-09
-5.2198153e-06
3.9668894e-10
-3.1500433e-06
9.324618e-10
-2.0194359e-06
9.5785929e-10
-1.3622155e-06
8.1179299e-10
-9.4459782e-07
6.2862111e-10
-6.5757962e-07
4.6448221e-10
-4.5627925e-07
3.3267337e-10
-3.1640557e-07
2.3257427e-10
-2.1856332e-07
1.5940811e-10
-1.5025365e-07
1.0730021e-10
-1.0276138e-07
7.1041077e-11
-6.9884302e-08
4.6236449e-11
-4.7232249e-08
2.9567318e-11
-3.1697946e-08
1.8497663e-11
-2.1087112e-08
1.1273956e-11
-1.3868634e-08
6.6242298e-12
-8.9816935e-09
3.7046804e-12
-5.693638e-09
1.9203392e-12
-3.4991657e-09
8.8144093e-13
-2.0501185e-09
3.2199431e-13
-1.1069068e-09
6.6843696e-14
-5.0493678e-10
-1.3140904e-10
-4.144612e-09
-3.8515593e-05
-7.5565994e-09
-3.1991811e-05
-9.8001405e-09
-2.5978988e-05
-1.1114442e-08
-2.0957915e-05
-1.1260473e-08
-1.6645246e-05
-9.4445311e-09
-1.25753e-05
-5.292975e-09
-8.5871202e-06
-1.3977045e-09
-5.2237106e-06
3.8913339e-10
-3.1518301e-06
9.3036665e-10
-2.0199772e-06
9.5730663e-10
-1.3622424e-06
8.1153458e-10
-9.4445206e-07
6.2840119e-10
-6.5739646e-07
4.642955e-10
-4.5611515e-07
3.3253261e-10
-3.1627378e-07
2.3247824e-10
-2.1846328e-07
1.5934346e-10
-1.5018049e-07
1.0726008e-10
-1.0270931e-07
7.1014551e-11
-6.9848038e-08
4.6220368e-11
-4.7207463e-08
2.9555069e-11
-3.1681271e-08
1.8490232e-11
-2.1076053e-08
1.1267216e-11
-1.3861406e-08
6.6207538e-12
-8.9770484e-09
3.7017005e-12
-5.6907162e-09
1.9179878e-12
-3.4973823e-09
8.805568e-13
-2.0490788e-09
3.2166592e-13
-1.1063467e-09
6.6813444e-14
-5.0468112e-10
-1.3134223e-10
-4.1685954e-09
-3.8511424e-05
-7.5979288e-09
-3.1988381e-05
-9.8498188e-09
-2.5976737e-05
-1.1167282e-08
-2.0956597e-05
-1.1312832e-08
-1.6645101e-05
-9.4930161e-09
-1.257712e-05
-5.3321859e-09
-8.591281e-06
-1.4179238e-09
-5.2276248e-06
3.815536e-10
-3.1536296e-06
9.2830457e-10
-2.0205239e-06
9.5686504e-10
-1.3622709e-06
8.1135462e-10
-9.4430655e-07
6.2820036e-10
-6.5721327e-07
4.6410081e-10
-4.5595106e-07
3.3236003e-10
-3.1614201e-07
2.3234166e-10
-2.1836326e-07
1.5923704e-10
-1.5010735e-07
1.0718182e-10
-1.0265725e-07
7.0958868e-11
-6.9811787e-08
4.6180458e-11
-4.7182687e-08
2.9530595e-11
-3.1664602e-08
1.8473623e-11
-2.1064998e-08
1.1259617e-11
-1.3854181e-08
6.6155934e-12
-8.9724059e-09
3.7000735e-12
-5.6877964e-09
1.9175676e-12
-3.4956002e-09
8.8035607e-13
-2.04804e-09
3.2160174e-13
-1.1057872e-09
6.6738525e-14
-5.044257e-10
-1.3127549e-10
-4.1923796e-09
-3.8507232e-05
-7.6389416e-09
-3.1984935e-05
-9.8992538e-09
-2.5974476e-05
-1.1219877e-08
-2.0955276e-05
-1.1364957e-08
-1.6644955e-05
-9.5413395e-09
-1.2578944e-05
-5.3712258e-09
-8.5954511e-06
-1.438055e-09
-5.231558e-06
3.7423756e-10
-3.1554419e-06
9.2630078e-10
-2.021076e-06
9.5640303e-10
-1.362301e-06
8.1116602e-10
-9.4416132e-07
6.2801098e-10
-6.5703009e-07
4.6393003e-10
-4.5578698e-07
3.3222532e-10
-3.1601027e-07
2.3224642e-10
-2.1826329e-07
1.5917488e-10
-1.5003425e-07
1.071439e-10
-1.0260522e-07
7.0936069e-11
-6.9775556e-08
4.6168085e-11
-4.7157924e-08
2.9522069e-11
-3.1647942e-08
1.8469226e-11
-2.1053949e-08
1.1255881e-11
-1.3846961e-08
6.6145353e-12
-8.9677664e-09
3.6994277e-12
-5.6848786e-09
1.9177927e-12
-3.4938194e-09
8.808666e-13
-2.0470019e-09
3.2185583e-13
-1.1052281e-09
6.6697438e-14
-5.0417047e-10
-1.3120879e-10
-4.215981e-09
-3.8503016e-05
-7.6796534e-09
-3.1981471e-05
-9.9484557e-09
-2.5972207e-05
-1.1272186e-08
-2.0953953e-05
-1.1416793e-08
-1.6644811e-05
-9.589688e-09
-1.2580771e-05
-5.4102479e-09
-8.5996306e-06
-1.4580724e-09
-5.2355102e-06
3.6695875e-10
-3.1572669e-06
9.24386e-10
-2.0216334e-06
9.5588401e-10
-1.3623325e-06
8.109403e-10
-9.4401638e-07
6.2778675e-10
-6.5684691e-07
4.6372779e-10
-4.5562292e-07
3.3205423e-10
-3.1587857e-07
2.3211259e-10
-2.1816335e-07
1.5907016e-10
-1.4996118e-07
1.0706645e-10
-1.0255322e-07
7.0875101e-11
-6.9739344e-08
4.612432e-11
-4.7133175e-08
2.9488335e-11
-3.1631293e-08
1.8445994e-11
-2.1042908e-08
1.1238487e-11
-1.3839745e-08
6.6022086e-12
-8.96313e-09
3.6906402e-12
-5.6819628e-09
1.9121356e-12
-3.4920399e-09
8.7724023e-13
-2.0459646e-09
3.2037625e-13
-1.1046694e-09
6.663708e-14
-5.0391545e-10
-1.3114215e-10
-4.2394063e-09
-3.8498776e-05
-7.7200893e-09
-3.197799e-05
-9.9974615e-09
-2.596993e-05
-1.1324324e-08
-2.0952626e-05
-1.1468343e-08
-1.6644667e-05
-9.6377061e-09
-1.2582602e-05
-5.4492086e-09
-8.603819e-06
-1.4782997e-09
-5.2394811e-06
3.5954602e-10
-3.1591047e-06
9.2251441e-10
-2.0221964e-06
9.5546898e-10
-1.3623654e-06
8.1078605e-10
-9.438717e-07
6.2762328e-10
-6.5666373e-07
4.6359056e-10
-4.5545889e-07
3.3194976e-10
-3.157469e-07
2.3204502e-10
-2.1806345e-07
1.5902889e-10
-1.4988814e-07
1.0704432e-10
-1.0250124e-07
7.0863268e-11
-6.9703147e-08
4.6119758e-11
-4.7108437e-08
2.9485974e-11
-3.161465e-08
1.8446401e-11
-2.103187e-08
1.1238631e-11
-1.3832532e-08
6.604072e-12
-8.9584953e-09
3.6919604e-12
-5.679048e-09
1.9135337e-12
-3.490261e-09
8.7838784e-13
-2.0449276e-09
3.2087787e-13
-1.1041109e-09
6.6626583e-14
-5.0366049e-10
-1.3107553e-10
-4.2626635e-09
-3.8494514e-05
-7.7602484e-09
-3.1974493e-05
-1.0046275e-08
-2.5967644e-05
-1.1376292e-08
-2.0951296e-05
-1.1519825e-08
-1.6644523e-05
-9.6856965e-09
-1.2584436e-05
-5.4880954e-09
-8.6080166e-06
-1.4982535e-09
-5.2434709e-06
3.5233683e-10
-3.1609553e-06
9.2061706e-10
-2.0227647e-06
9.551323e-10
-1.3623999e-06
8.1064069e-10
-9.4372721e-07
6.274432e-10
-6.5648051e-07
4.6341338e-10
-4.5529486e-07
3.3179204e-10
-3.1561525e-07
2.3191986e-10
-2.1796357e-07
1.58929e-10
-1.4981512e-07
1.0696729e-10
-1.0244928e-07
7.080617e-11
-6.9666959e-08
4.6076141e-11
-4.7083704e-08
2.9456178e-11
-3.1598011e-08
1.8423502e-11
-2.1020836e-08
1.1224193e-11
-1.3825322e-08
6.5923577e-12
-8.9538623e-09
3.6845564e-12
-5.6761345e-09
1.9077665e-12
-3.4884829e-09
8.7502288e-13
-2.0438912e-09
3.1949117e-13
-1.1035527e-09
6.6575249e-14
-5.034057e-10
-1.3100895e-10
-4.2857613e-09
-3.8490228e-05
-7.800104e-09
-3.1970979e-05
-1.0094875e-08
-2.5965349e-05
-1.1427971e-08
-2.0949963e-05
-1.1571137e-08
-1.664438e-05
-9.7333729e-09
-1.2586274e-05
-5.5268013e-09
-8.6122232e-06
-1.5183716e-09
-5.2474793e-06
3.4510146e-10
-3.1628187e-06
9.1871301e-10
-2.0233383e-06
9.5476096e-10
-1.3624359e-06
8.1049723e-10
-9.4358295e-07
6.2728556e-10
-6.5629727e-07
4.6326652e-10
-4.5513084e-07
3.3168062e-10
-3.1548364e-07
2.3184473e-10
-2.1786373e-07
1.5888425e-10
-1.4974213e-07
1.0694477e-10
-1.0239734e-07
7.0797452e-11
-6.963079e-08
4.6075738e-11
-4.7058983e-08
2.9458558e-11
-3.1581379e-08
1.8428316e-11
-2.1009807e-08
1.1229151e-11
-1.3818115e-08
6.5986839e-12
-8.9492316e-09
3.6901655e-12