/*--------------------------------*- C++ -*----------------------------------*\
| =========                 |                                                 |
| \\      /  F ield         | OpenFOAM: The Open Source CFD Toolbox           |
|  \\    /   O peration     | Version:  v2012                                 |
|   \\  /    A nd           | Website:  www.openfoam.com                      |
|    \\/     M anipulation  |                                                 |
\*---------------------------------------------------------------------------*/
FoamFile
{
    version     2.0;
    format      ascii;
    class       volScalarField;
    location    "300";
    object      rho;
}
// * * * * * * * * * * * * * * * * * * * * * * * * * * * * * * * * * * * * * //

dimensions      [1 -3 0 0 0 0 0];


internalField   nonuniform List<scalar> 
24000
(
22.608638
22.360977
21.617067
20.825173
19.707941
17.606619
13.998374
9.7721594
6.7420433
4.9298102
3.8172917
3.0998178
2.6103502
2.2817254
2.0636417
1.9116792
1.8017038
1.7196858
1.6570383
1.6083007
1.56982
1.5390218
1.5140588
1.4935865
1.4766125
1.4623931
1.4503625
1.4400853
1.4312218
1.4235047
22.610832
22.36316
21.619291
20.827493
19.710558
17.609785
14.007077
9.7916451
6.7606313
4.9441089
3.8279135
3.1079236
2.6165133
2.2863127
2.0672073
1.9145503
1.8040928
1.7217247
1.6588159
1.6098826
1.5712574
1.5403543
1.5153153
1.4947874
1.4777722
1.4635211
1.4514655
1.4411677
1.4322867
1.4245543
22.613109
22.365307
21.62142
20.829836
19.713836
17.616067
14.020316
9.80656
6.771072
4.9508444
3.8326054
3.1114187
2.61923
2.2884215
2.0689284
1.9160053
1.8053743
1.7228733
1.6598539
1.6108248
1.572118
1.5411487
1.5160584
1.4954922
1.4784487
1.4641766
1.4521051
1.4417947
1.4329032
1.4251619
22.61539
22.367519
21.623772
20.832535
19.717601
17.622745
14.032037
9.818438
6.7786026
4.9551242
3.8352964
3.1131634
2.6203857
2.2891621
2.0694097
1.9162917
1.8054792
1.7228447
1.6597394
1.610663
1.571935
1.5409595
1.5158698
1.4953068
1.4782668
1.463998
1.4519293
1.4416215
1.4327325
1.4249936
22.617675
22.369771
21.626232
20.835389
19.721543
17.629435
14.043051
9.8292048
6.7851014
4.9585513
3.8374026
3.1145266
2.6213319
2.2898599
2.0699393
1.9167088
1.8058209
1.7231337
1.6599893
1.6108821
1.5721297
1.5411349
1.5160304
1.4954561
1.4784076
1.4641326
1.4520593
1.441748
1.4328565
1.4251158
22.619963
22.37206
21.628767
20.838327
19.725523
17.636029
14.053679
9.8395097
6.7912129
4.9618482
3.8392574
3.1156143
2.6220177
2.2903266
2.0702699
1.9169482
1.8059968
1.723265
1.6600895
1.6109611
1.5721945
1.5411901
1.516079
1.4955
1.4784482
1.4641708
1.4520957
1.4417832
1.4328908
1.4251496
22.622253
22.374375
21.631345
20.841304
19.729512
17.642577
14.064165
9.8496712
6.7973103
4.9650402
3.8409817
3.1165878
2.6226078
2.290724
2.0705563
1.9171638
1.8061651
1.7234005
1.6602017
1.6110566
1.5722776
1.5412639
1.5161458
1.4955616
1.4785059
1.4642255
1.4521482
1.4418341
1.4329407
1.4251988
22.624544
22.376708
21.633951
20.844304
19.733508
17.649114
14.074611
9.8597995
6.8034346
4.9681779
3.842649
3.1175085
2.6231502
2.2910835
2.0708132
1.9173564
1.8063145
1.7235199
1.6603
1.6111396
1.5723496
1.5413277
1.5162036
1.4956148
1.4785556
1.4642726
1.4521935
1.441878
1.4329836
1.4252411
22.626837
22.379053
21.636573
20.84732
19.737514
17.65566
14.085063
9.8699464
6.8095877
4.9713068
3.8442981
3.1184092
2.6236739
2.291428
2.0710593
1.9175413
1.8064588
1.7236362
1.6603963
1.6112216
1.5724211
1.5413915
1.5162615
1.4956683
1.4786058
1.4643203
1.4522393
1.4419225
1.4330271
1.425284
22.629129
22.381406
21.639208
20.850348
19.741532
17.662223
14.09554
9.8801312
6.8157715
4.974449
3.8459467
3.1193046
2.6241909
2.291767
2.0713013
1.9177234
1.8066012
1.7237512
1.660492
1.6113034
1.5724928
1.5414556
1.5163199
1.4957224
1.4786566
1.4643686
1.4522858
1.4419676
1.4330713
1.4253275
22.631422
22.383766
21.641852
20.853387
19.745564
17.668808
14.106051
9.8903648
6.8219852
4.9776122
3.8476034
3.1202018
2.6247077
2.2921055
2.0715432
1.9179058
1.8067442
1.7238671
1.6605888
1.6113865
1.5725658
1.5415211
1.5163797
1.4957779
1.4787089
1.4644184
1.4523338
1.4420142
1.433117
1.4253725
22.633714
22.38613
21.644504
20.856435
19.749609
17.675415
14.116596
9.9006496
6.8282303
4.9808015
3.8492721
3.1211039
2.6252272
2.2924461
2.0717869
1.9180898
1.8068888
1.7239847
1.6606873
1.6114712
1.5726405
1.5415883
1.5164412
1.4958351
1.4787628
1.4644699
1.4523833
1.4420624
1.4331642
1.4254191
22.636005
22.388497
21.647162
20.859494
19.753668
17.682045
14.127177
9.9109875
6.8345051
4.9840195
3.8509532
3.1220124
2.6257509
2.2927898
2.0720333
1.9182763
1.8070356
1.7241044
1.6607878
1.6115579
1.572717
1.5416573
1.5165045
1.4958941
1.4788185
1.4645231
1.4524346
1.4421123
1.4332131
1.4254673
22.638295
22.390867
21.649827
20.862561
19.75774
17.688694
14.137792
9.9213774
6.84081
4.9872654
3.8526468
3.1229277
2.6262794
2.2931373
2.0722828
1.9184655
1.8071849
1.7242263
1.6608904
1.6116466
1.5727956
1.5417282
1.5165697
1.4959549
1.478876
1.464578
1.4524876
1.4421639
1.4332636
1.4255171
22.640585
22.393238
21.652496
20.865637
19.761825
17.695361
14.148438
9.9318181
6.8471448
4.9905383
3.854353
3.12385
2.6268128
2.2934888
2.0725357
1.9186576
1.8073368
1.7243506
1.6609952
1.6117374
1.5728761
1.541801
1.5166367
1.4960175
1.4789352
1.4646346
1.4525423
1.4422171
1.4333158
1.4255685
22.642873
22.395612
21.655171
20.868721
19.765921
17.702046
14.159115
9.9423095
6.8535086
4.9938392
3.8560717
3.124779
2.627351
2.2938442
2.0727918
1.9188525
1.8074912
1.7244771
1.661102
1.6118301
1.5729584
1.5418756
1.5167054
1.4960818
1.478996
1.4646929
1.4525986
1.442272
1.4333695
1.4256215
22.645161
22.397987
21.65785
20.871812
19.770029
17.708747
14.169821
9.9528485
6.8599021
4.9971675
3.8578024
3.1257144
2.6278938
2.2942033
2.0730511
1.9190501
1.807648
1.7246058
1.6612109
1.6119247
1.5730426
1.541952
1.5167759
1.4961477
1.4790585
1.4647527
1.4526565
1.4423283
1.4334247
1.4256759
22.647447
22.400363
21.660534
20.874912
19.774147
17.715463
14.180553
9.963437
6.8663256
5.0005198
3.8595434
3.1266557
2.6284409
2.294566
2.0733135
1.9192502
1.807807
1.7247365
1.6613217
1.6120211
1.5731284
1.5420299
1.5168478
1.4962151
1.4791224
1.464814
1.4527156
1.4423859
1.4334813
1.4257316
22.649731
22.40274
21.663222
20.878019
19.778276
17.722195
14.191312
9.9740706
6.8727816
5.0038944
3.8612942
3.1276028
2.6289921
2.2949322
2.0735787
1.9194529
1.8079683
1.7248693
1.6614342
1.6121191
1.5732158
1.5421093
1.5169212
1.4962839
1.4791877
1.4648765
1.4527762
1.4424449
1.4335391
1.4257886
22.652015
22.405119
21.665914
20.881134
19.782416
17.728939
14.202096
9.984753
6.8792699
5.0072908
3.8630549
3.1285551
2.6295472
2.2953015
2.0738466
1.919658
1.8081317
1.7250039
1.6615485
1.6122188
1.5733047
1.5421902
1.5169961
1.4963541
1.4792542
1.4649404
1.4528379
1.4425051
1.4335981
1.4258468
22.654297
22.407498
21.668611
20.884255
19.786565
17.735698
14.212905
9.9954784
6.885791
5.0107063
3.8648255
3.1295122
2.6301058
2.2956739
2.0741172
1.9198653
1.8082971
1.7251403
1.6616645
1.61232
1.5733951
1.5422725
1.5170722
1.4964256
1.4793221
1.4650055
1.452901
1.4425665
1.4336583
1.4259061
22.656578
22.409877
21.671312
20.887384
19.790723
17.742469
14.223736
10.006251
6.892345
5.0141411
3.8666048
3.130474
2.6306677
2.2960493
2.0743904
1.9200748
1.8084644
1.7252785
1.661782
1.6124227
1.5734869
1.5423561
1.5171497
1.4964982
1.4793912
1.4650718
1.4529651
1.442629
1.4337197
1.4259666
22.658857
22.412258
21.674018
20.890519
19.794891
17.749253
14.23459
10.017066
6.8989317
5.0175958
3.8683921
3.1314404
2.6312329
2.2964274
2.0746659
1.9202865
1.8086336
1.7254184
1.6619012
1.6125269
1.57358
1.5424411
1.5172284
1.4965722
1.4794615
1.4651392
1.4530304
1.4426927
1.4337821
1.4260281
22.661136
22.414638
21.676728
20.893661
19.799068
17.756049
14.245467
10.027927
6.9055517
5.0210686
3.8701876
3.1324111
2.6318013
2.2968083
2.0749438
1.9205002
1.8088047
1.7255599
1.6620218
1.6126324
1.5736745
1.5425273
1.5173083
1.4966473
1.4795329
1.4652078
1.4530968
1.4427574
1.4338456
1.4260906
22.663414
22.417019
21.679443
20.896809
19.803254
17.762858
14.256366
10.03883
6.9122045
5.0245592
3.871992
3.1333861
2.6323726
2.2971917
2.0752241
1.920716
1.8089776
1.7257031
1.662144
1.6127394
1.5737704
1.5426147
1.5173894
1.4967235
1.4796054
1.4652775
1.4531642
1.4428232
1.4339101
1.4261543
22.66569
22.419401
21.682163
20.899963
19.80745
17.769679
14.267287
10.049777
6.9188907
5.0280687
3.8738044
3.134365
2.6329467
2.2975776
2.0755065
1.9209337
1.8091522
1.7258479
1.6622675
1.6128477
1.5738674
1.5427034
1.5174717
1.4968009
1.479679
1.4653482
1.4532327
1.44289
1.4339756
1.4262188
22.667965
22.421782
21.684886
20.903124
19.811655
17.776511
14.278228
10.060768
6.9256096
5.0315962
3.8756242
3.1353478
2.6335236
2.2979659
2.0757911
1.9211533
1.8093285
1.7259942
1.6623926
1.6129573
1.5739657
1.5427932
1.5175551
1.4968794
1.4797537
1.4654199
1.4533022
1.4429578
1.4340421
1.4262844
22.670239
22.424164
21.687613
20.906291
19.815869
17.783355
14.289192
10.071799
6.9323622
5.0351408
3.8774513
3.1363342
2.6341033
2.2983567
2.0760778
1.9213749
1.8095065
1.726142
1.662519
1.6130683
1.5740653
1.5428843
1.5176396
1.496959
1.4798295
1.4654927
1.4533727
1.4430266
1.4341096
1.4263509
22.672511
22.426545
21.690344
20.909464
19.820092
17.790212
14.300176
10.082876
6.9391474
5.0387036
3.8792863
3.1373244
2.6346857
2.2987498
2.0763667
1.9215983
1.8096862
1.7262913
1.6626467
1.6131805
1.574166
1.5429764
1.5177252
1.4970396
1.4799062
1.4655665
1.4534442
1.4430963
1.434178
1.4264183
22.674782
22.428927
21.693079
20.912643
19.824324
17.797081
14.311181
10.093993
6.9459661
5.0422845
3.8811293
3.1383183
2.6352704
2.2991451
2.0766575
1.9218235
1.8098674
1.7264421
1.6627758
1.6132939
1.5742679
1.5430696
1.5178119
1.4971212
1.4799839
1.4656412
1.4535166
1.443167
1.4342473
1.4264866
22.677051
22.431308
21.695817
20.915829
19.828565
17.80396
14.322208
10.105155
6.9528182
5.0458821
3.8829792
3.1393157
2.6358578
2.2995427
2.0769504
1.9220505
1.8100503
1.7265943
1.6629063
1.6134086
1.5743709
1.543164
1.5178997
1.4972039
1.4800627
1.4657169
1.45359
1.4432386
1.4343176
1.4265559
22.679319
22.433689
21.698558
20.919021
19.832815
17.810852
14.333255
10.116356
6.9597033
5.0494973
3.8848361
3.1403168
2.6364477
2.2999427
2.0772453
1.9222793
1.8102348
1.726748
1.663038
1.6135245
1.5744751
1.5432595
1.5179885
1.4972876
1.4801424
1.4657936
1.4536644
1.4433111
1.4343887
1.426626
22.681585
22.436071
21.701303
20.922219
19.837074
17.817756
14.344324
10.127602
6.9666221
5.0531309
3.8867003
3.1413214
2.6370402
2.300345
2.0775423
1.92251
1.8104209
1.7269032
1.6631711
1.6136416
1.5745805
1.543356
1.5180783
1.4973723
1.4802232
1.4658713
1.4537396
1.4433846
1.4344608
1.426697
22.68385
22.438452
21.704051
20.925424
19.841342
17.824672
14.355413
10.13889
6.9735739
5.0567811
3.8885724
3.1423292
2.637635
2.3007495
2.0778413
1.9227424
1.8106085
1.7270597
1.6633055
1.6137599
1.574687
1.5434536
1.5181692
1.4974579
1.4803048
1.4659498
1.4538158
1.4434589
1.4345337
1.4267689
22.686113
22.440833
21.706802
20.928635
19.845618
17.8316
14.366524
10.150218
6.9805595
5.0604487
3.8904515
3.1433405
2.6382324
2.3011563
2.0781423
1.9229766
1.8107978
1.7272178
1.6634412
1.6138795
1.5747947
1.5435524
1.5182611
1.4975446
1.4803875
1.4660293
1.4538929
1.4435341
1.4346075
1.4268417
22.688375
22.443214
21.709557
20.931853
19.849904
17.83854
14.377656
10.161591
6.9875782
5.0641345
3.8923374
3.1443553
2.6388322
2.3015654
2.0784454
1.9232126
1.8109887
1.7273772
1.6635783
1.6140003
1.5749035
1.5436522
1.5183541
1.4976323
1.4804711
1.4661098
1.4539709
1.4436103
1.4346823
1.4269153
22.690634
22.445594
21.712314
20.935076
19.854199
17.845493
14.388809
10.173004
6.9946311
5.0678372
3.8942304
3.1453737
2.6394345
2.3019766
2.0787505
1.9234504
1.8111812
1.7275381
1.6637167
1.6141224
1.5750135
1.5437531
1.5184481
1.497721
1.4805558
1.4661913
1.4540499
1.4436874
1.4347579
1.4269899
22.692893
22.447975
21.715074
20.938306
19.858502
17.852457
14.399983
10.184462
7.001717
5.0715571
3.8961311
3.1463956
2.6400394
2.3023901
2.0790576
1.92369
1.8113752
1.7277005
1.6638563
1.6142456
1.5751246
1.5438551
1.5185432
1.4978107
1.4806413
1.4662736
1.4541298
1.4437654
1.4348344
1.4270653
22.695149
22.450355
21.717837
20.941542
19.862814
17.859434
14.411179
10.195959
7.0088373
5.075295
3.8980389
3.1474207
2.6406466
2.3028057
2.0793667
1.9239313
1.8115709
1.7278643
1.6639974
1.6143701
1.5752369
1.5439583
1.5186393
1.4979015
1.4807279
1.466357
1.4542107
1.4438443
1.4349119
1.4271416
22.697404
22.452735
21.720604
20.944784
19.867136
17.866423
14.422396
10.207501
7.0159906
5.0790501
3.8999533
3.1484493
2.6412563
2.3032237
2.0796778
1.9241745
1.8117683
1.7280296
1.6641397
1.6144959
1.5753504
1.5440625
1.5187365
1.4979933
1.4808155
1.4664413
1.4542925
1.4439242
1.4349903
1.4272189
22.699657
22.455115
21.723373
20.948032
19.871467
17.873425
14.433634
10.219085
7.0231785
5.0828222
3.9018749
3.1494813
2.6418687
2.303644
2.0799911
1.9244196
1.8119673
1.7281964
1.6642835
1.6146229
1.5754651
1.5441679
1.5188348
1.4980862
1.4809042
1.4665267
1.4543753
1.444005
1.4350696
1.4272971
22.701909
22.457494
21.726144
20.951285
19.875805
17.880439
14.444895
10.230709
7.0303997
5.0866124
3.9038043
3.1505169
2.6424835
2.3040666
2.0803064
1.9246665
1.8121679
1.7283647
1.6644286
1.6147512
1.5755809
1.5442744
1.5189342
1.49818
1.4809937
1.466613
1.454459
1.4440867
1.4351498
1.4273761
22.70416
22.459873
21.72892
20.954543
19.880153
17.887464
14.456177
10.242379
7.0376553
5.0904197
3.9057408
3.151556
2.6431008
2.3044914
2.0806238
1.9249152
1.8123702
1.7285344
1.6645751
1.6148807
1.575698
1.544382
1.5190347
1.498275
1.4810844
1.4667003
1.4545437
1.4441694
1.435231
1.4274561
22.706408
22.462251
21.731698
20.957808
19.88451
17.894504
14.46748
10.254088
7.0449446
5.0942442
3.907684
3.1525986
2.6437206
2.3049187
2.0809431
1.9251658
1.8125742
1.7287056
1.6647229
1.6150116
1.5758162
1.5444908
1.5191362
1.4983709
1.481176
1.4667885
1.4546294
1.4442531
1.435313
1.427537
22.708656
22.464628
21.73448
20.961078
19.888874
17.901555
14.478806
10.265843
7.0522682
5.0980866
3.9096342
3.1536447
2.644343
2.3053483
2.0812646
1.9254182
1.8127797
1.7288783
1.6648721
1.6151437
1.5759356
1.5446007
1.5192388
1.498468
1.4812687
1.4668779
1.4547161
1.4443377
1.4353961
1.4276189
22.710901
22.467005
21.737264
20.964353
19.893249
17.908618
14.490153
10.277639
7.0596258
5.1019462
3.9115924
3.1546942
2.644968
2.3057801
2.0815881
1.9256724
1.8129869
1.7290525
1.6650226
1.615277
1.5760562
1.5447117
1.5193425
1.498566
1.4813624
1.4669681
1.4548036
1.4444232
1.43548
1.4277016
22.713145
22.469381
21.740053
20.967634
19.897631
17.915695
14.501523
10.289477
7.0670179
5.1058228
3.9135576
3.1557471
2.6455955
2.3062142
2.0819137
1.9259285
1.8131958
1.7292282
1.6651745
1.6154116
1.576178
1.5448239
1.5194473
1.4986651
1.4814571
1.4670594
1.4548922
1.4445097
1.4355649
1.4277853
22.715387
22.471757
21.742845
20.970921
19.902022
17.922783
14.512913
10.30136
7.0744439
5.1097175
3.9155294
3.1568037
2.6462256
2.3066506
2.0822413
1.9261864
1.8134062
1.7294053
1.6653278
1.6155475
1.5763011
1.5449371
1.5195531
1.4987652
1.4815528
1.4671516
1.4549818
1.4445972
1.4356507
1.4278698
22.717627
22.474133
21.745641
20.974214
19.906421
17.929884
14.524327
10.313281
7.0819047
5.1136293
3.9175085
3.1578639
2.6468583
2.3070894
2.0825712
1.9264462
1.8136184
1.729584
1.6654825
1.6156847
1.5764253
1.5450516
1.5196601
1.4988665
1.4816496
1.4672449
1.4550724
1.4446856
1.4357376
1.4279554
22.719865
22.476508
21.748439
20.977512
19.91083
17.936998
14.535763
10.325252
7.0893997
5.1175581
3.9194954
3.1589277
2.6474936
2.3075304
2.082903
1.9267078
1.8138322
1.7297642
1.6656386
1.6158231
1.5765507
1.5451672
1.5197682
1.4989688
1.4817473
1.4673391
1.4551638
1.4447749
1.4358252
1.4280418
22.722102
22.478883
21.75124
20.980816
19.915247
17.944123
14.547219
10.33726
7.0969295
5.1215049
3.9214899
3.1599949
2.6481314
2.3079738
2.083237
1.9269714
1.8140476
1.7299459
1.665796
1.6159628
1.5766773
1.5452839
1.5198774
1.4990721
1.4818461
1.4674344
1.4552563
1.4448653
1.4359139
1.4281293
22.724337
22.481257
21.754045
20.984125
19.919672
17.951262
14.558698
10.349314
7.104494
5.1254689
3.9234909
3.1610657
2.6487718
2.3084196
2.0835731
1.9272367
1.8142648
1.7301291
1.6659548
1.6161039
1.5768052
1.5454018
1.5199877
1.4991766
1.4819459
1.4675307
1.4553498
1.4449566
1.4360036
1.4282176
22.726569
22.483631
21.756851
20.98744
19.924105
17.958411
14.570198
10.361411
7.1120932
5.1294499
3.925499
3.1621402
2.6494149
2.3088678
2.0839113
1.9275039
1.8144836
1.7303138
1.6661151
1.6162462
1.5769343
1.5455209
1.5200991
1.4992821
1.4820469
1.467628
1.4554444
1.445049
1.4360942
1.4283069
22.7288
22.486003
21.759661
20.990761
19.928546
17.965575
14.581723
10.373548
7.119727
5.1334489
3.9275152
3.1632183
2.6500607
2.3093184
2.0842516
1.927773
1.814704
1.7305001
1.6662766
1.6163898
1.5770645
1.5456411
1.5202116
1.4993886
1.4821488
1.4677263
1.4555398
1.4451422
1.4361857
1.4283971
22.731029
22.488375
21.762473
20.994087
19.932995
17.97275
14.593268
10.385733
7.1273961
5.1374648
3.929539
3.1643002
2.6507091
2.3097713
2.084594
1.9280439
1.8149261
1.7306878
1.6664396
1.6165347
1.577196
1.5457625
1.5203253
1.4994963
1.4822518
1.4678257
1.4556363
1.4452365
1.4362783
1.4284883
22.733256
22.490746
21.765287
20.997418
19.937453
17.979937
14.604835
10.397956
7.1350999
5.1414979
3.9315695
3.1653858
2.6513601
2.3102266
2.0849385
1.9283167
1.8151499
1.7308771
1.666604
1.616681
1.5773287
1.545885
1.52044
1.499605
1.4823558
1.467926
1.4557338
1.4453317
1.4363717
1.4285804
22.735482
22.493116
21.768103
21.000754
19.941919
17.987136
14.616424
10.410227
7.1428393
5.145549
3.9336071
3.1664749
2.652014
2.3106843
2.0852851
1.9285914
1.8153754
1.7310679
1.6667698
1.6168285
1.5774627
1.5460088
1.5205559
1.4997148
1.4824609
1.4680274
1.4558323
1.4454279
1.4364662
1.4286735
22.737706
22.495486
21.770922
21.004094
19.946392
17.994347
14.628035
10.422539
7.1506135
5.149617
3.9356531
3.1675677
2.6526704
2.3111443
2.0856338
1.928868
1.8156026
1.7312602
1.666937
1.6169773
1.5775979
1.5461336
1.5206729
1.4998257
1.482567
1.4681298
1.4559318
1.4455251
1.4365616
1.4287675
22.739928
22.497854
21.773743
21.00744
19.950874
18.00157
14.639667
10.434893
7.1584236
5.1537022
3.9377069
3.1686644
2.6533294
2.3116067
2.0859846
1.9291465
1.8158315
1.7314541
1.6671056
1.6171275
1.5777343
1.5462597
1.520791
1.4999377
1.4826743
1.4682333
1.4560323
1.4456233
1.436658
1.4288626
22.742149
22.500221
21.776567
21.01079
19.955363
18.008805
14.651322
10.447295
7.1662685
5.1578052
3.9397675
3.1697648
2.6539911
2.3120714
2.0863376
1.9294268
1.8160621
1.7316495
1.6672756
1.6172789
1.577872
1.546387
1.5209103
1.5000508
1.4827825
1.4683378
1.4561338
1.4457225
1.4367554
1.4289585
22.744368
22.502587
21.779392
21.014144
19.95986
18.016052
14.663
10.459734
7.1741498
5.1619251
3.9418353
3.1708692
2.6546556
2.3125386
2.0866927
1.9297091
1.8162944
1.7318464
1.6674471
1.6174317
1.5780109
1.5465154
1.5210307
1.500165
1.4828919
1.4684433
1.4562364
1.4458228
1.4368538
1.4290555
22.746586
22.504953
21.78222
21.017504
19.964365
18.02331
14.674698
10.472222
7.1820658
5.1660624
3.9439115
3.1719771
2.6553228
2.3130082
2.08705
1.9299932
1.8165283
1.7320448
1.6676198
1.6175858
1.578151
1.546645
1.5211522
1.5002802
1.4830022
1.4685498
1.4563399
1.4459239
1.4369531
1.4291533
22.748801
22.507317
21.785049
21.020868
19.968878
18.03058
14.686418
10.484752
7.1900188
5.1702172
3.9459959
3.1730888
2.6559926
2.3134801
2.0874093
1.9302793
1.816764
1.7322447
1.6677941
1.6177411
1.5782924
1.5467758
1.5212749
1.5003966
1.4831136
1.4686574
1.4564444
1.4460261
1.4370534
1.4292522
22.751015
22.50968
21.787881
21.024237
19.973397
18.037862
14.698159
10.497323
7.1980068
5.174389
3.9480872
3.1742042
2.6566652
2.3139546
2.0877708
1.9305672
1.8170013
1.7324462
1.6679697
1.6178978
1.578435
1.5469077
1.5213987
1.500514
1.4832261
1.4687661
1.45655
1.4461292
1.4371547
1.429352
22.753226
22.512042
21.790715
21.027611
19.977924
18.045155
14.709921
10.509943
7.2060319
5.178578
3.950186
3.1753236
2.6573405
2.3144316
2.0881345
1.930857
1.8172403
1.7326492
1.6681467
1.6180558
1.5785789
1.5470409
1.5215236
1.5006326
1.4833398
1.4688758
1.4566566
1.4462335
1.437257
1.4294528
22.755436
22.514403
21.793552
21.03099
19.982459
18.052459
14.721705
10.5226
7.214092
5.1827848
3.9522935
3.1764468
2.6580185
2.3149108
2.0885003
1.9311487
1.817481
1.7328538
1.6683252
1.6182152
1.5787239
1.5471752
1.5216497
1.5007522
1.4834544
1.4689864
1.4567642
1.4463386
1.4373603
1.4295545
22.757643
22.516764
21.796391
21.034374
19.987001
18.059775
14.733511
10.535306
7.2221896
5.1870084
3.9544092
3.1775737
2.6586991
2.3153924
2.0888682
1.9314422
1.8177233
1.7330599
1.668505
1.6183758
1.5788703
1.5473107
1.5217769
1.500873
1.4835701
1.4690982
1.4568729
1.4464448
1.4374645
1.4296573
22.759849
22.519123
21.799232
21.037762
19.991549
18.067102
14.745338
10.548054
7.2303226
5.1912492
3.9565323
3.1787044
2.6593824
2.3158763
2.0892382
1.9317377
1.8179674
1.7332675
1.6686863
1.6185378
1.5790179
1.5474474
1.5219052
1.5009948
1.4836869
1.469211
1.4569825
1.446552
1.4375697
1.429761
22.762053
22.521482
21.802077
21.041156
19.996106
18.07444
14.757185
10.560843
7.2384933
5.1955075
3.9586631
3.1798389
2.6600686
2.3163627
2.0896104
1.9320351
1.8182132
1.7334767
1.6688691
1.6187011
1.5791667
1.5475854
1.5220348
1.5011179
1.4838048
1.4693249
1.4570932
1.4466602
1.437676
1.4298657
22.764254
22.523839
21.804924
21.044554
20.000669
18.081789
14.769054
10.573681
7.2467
5.1997827
3.9608031
3.1809773
2.6607574
2.3168515
2.0899847
1.9323343
1.8184607
1.7336875
1.6690532
1.6188658
1.5793168
1.5477245
1.5221654
1.5012419
1.4839238
1.4694398
1.4572049
1.4467694
1.4377832
1.4299714
22.766453
22.526196
21.807774
21.047957
20.00524
18.089149
14.780943
10.586557
7.254944
5.2040753
3.9629515
3.1821193
2.661449
2.3173427
2.0903612
1.9326355
1.81871
1.7338998
1.6692388
1.6190318
1.5794683
1.5478648
1.5222973
1.5013672
1.4840438
1.4695558
1.4573177
1.4468797
1.4378915
1.4300781
22.768651
22.528551
21.810627
21.051364
20.009817
18.09652
14.792854
10.599481
7.2632248
5.2083857
3.9651072
3.1832651
2.6621432
2.3178363
2.0907398
1.9329386
1.8189609
1.7341137
1.6694259
1.6191991
1.5796209
1.5480063
1.5224302
1.5014935
1.4841649
1.4696728
1.4574315
1.4469909
1.4380007
1.4301857
22.770846
22.530905
21.813482
21.054775
20.014401
18.103901
14.804785
10.612447
7.2715429
5.2127129
3.9672708
3.1844146
2.66284
2.3183325
2.0911206
1.9332437
1.8192135
1.7343292
1.6696143
1.6193678
1.5797748
1.5481491
1.5225644
1.501621
1.4842872
1.469791
1.4575464
1.4471032
1.438111
1.4302944
22.773039
22.533258
21.816338
21.05819
20.018992
18.111293
14.816736
10.625455
7.2798984
5.2170583
3.9694431
3.1855676
2.6635394
2.3188311
2.0915035
1.9335506
1.8194679
1.7345461
1.6698042
1.6195377
1.57993
1.548293
1.5226996
1.5017495
1.4844105
1.4699101
1.4576623
1.4472165
1.4382222
1.430404
22.77523
22.53561
21.819198
21.061609
20.023589
18.118695
14.828708
10.638512
7.288291
5.2214213
3.971623
3.1867244
2.6642415
2.319332
2.0918886
1.9338594
1.8197239
1.7347647
1.6699955
1.6197091
1.5800864
1.5484381
1.5228361
1.5018792
1.4845349
1.4700303
1.4577792
1.4473308
1.4383344
1.4305146
22.777419
22.537961
21.822059
21.065032
20.028193
18.126108
14.840699
10.651607
7.296722
5.225802
3.9738101
3.1878848
2.6649464
2.3198353
2.0922758
1.9341701
1.8199817
1.7349847
1.6701883
1.6198817
1.5802441
1.5485844
1.5229736
1.50201
1.4846604
1.4701516
1.4578972
1.4474461
1.4384477
1.4306262
22.779607
22.54031
21.824922
21.068459
20.032804
18.133532
14.852712
10.664749
7.3051898
5.2302009
3.976005
3.1890489
2.6656539
2.3203408
2.0926651
1.9344828
1.8202412
1.7352064
1.6703825
1.6200558
1.5804031
1.548732
1.5231124
1.502142
1.484787
1.470274
1.4580163
1.4475625
1.438562
1.4307388
22.781792
22.542659
21.827787
21.07189
20.037422
18.140965
14.864745
10.677935
7.3136964
5.2346173
3.9782086
3.1902164
2.6663639
2.3208487
2.0930564
1.9347972
1.8205023
1.7354295
1.670578
1.620231
1.5805632
1.5488807
1.5232523
1.5022751
1.4849146
1.4703974
1.4581362
1.4476799
1.4386772
1.4308524
22.783976
22.545006
21.830653
21.075325
20.042046
18.148408
14.876797
10.691162
7.32224
5.2390518
3.9804192
3.1913873
2.6670766
2.3213588
2.0934498
1.9351135
1.8207651
1.7356541
1.670775
1.6204077
1.5807247
1.5490306
1.5233934
1.5024093
1.4850434
1.4705219
1.4582574
1.4477983
1.4387935
1.430967
22.786157
22.547353
21.833522
21.078764
20.046676
18.155863
14.888869
10.704436
7.3308229
5.2435046
3.9826368
3.192562
2.6677918
2.3218714
2.0938454
1.9354317
1.8210296
1.7358803
1.6709735
1.6205857
1.5808874
1.5491818
1.5235357
1.5025446
1.4851732
1.4706474
1.4583795
1.4479177
1.4389107
1.4310826
22.788336
22.549699
21.836392
21.082207
20.051313
18.163325
14.90096
10.717751
7.339443
5.2479754
3.9848625
3.1937402
2.6685096
2.3223864
2.0942431
1.9357517
1.8212958
1.7361081
1.6711733
1.620765
1.5810515
1.5493342
1.5236791
1.502681
1.4853042
1.4707741
1.4585028
1.4480382
1.4390291
1.4311992
22.790513
22.552044
21.839264
21.085655
20.055956
18.1708
14.913072
10.731111
7.3481021
5.2524644
3.9870968
3.1949221
2.6692299
2.3229037
2.0946428
1.9360736
1.8215636
1.7363373
1.6713746
1.6209457
1.5812167
1.5494877
1.5238236
1.5028185
1.4854362
1.4709018
1.458627
1.4481597
1.4391484
1.4313167
22.792688
22.554388
21.842138
21.089107
20.060605
18.178283
14.925202
10.744514
7.3567996
5.2569717
3.9893377
3.1961074
2.6699529
2.3234234
2.0950445
1.9363973
1.821833
1.7365681
1.6715772
1.6211276
1.5813832
1.5496425
1.5239693
1.5029572
1.4855694
1.4710305
1.4587523
1.4482822
1.4392687
1.4314353
22.79486
22.556731
21.845013
21.092563
20.065261
18.185775
14.937352
10.757961
7.3655354
5.2614972
3.9915857
3.1972961
2.6706784
2.3239453
2.0954484
1.9367228
1.8221042
1.7368004
1.6717812
1.6213109
1.5815509
1.5497984
1.5241162
1.503097
1.4857036
1.4711603
1.4588786
1.4484057
1.43939
1.4315548
22.79703
22.559072
21.84789
21.096024
20.069922
18.193278
14.94952
10.771453
7.3743112
5.2660412
3.9938418
3.1984883
2.6714065
2.3244695
2.0958543
1.9370502
1.822377
1.7370342
1.6719867
1.6214955
1.5817199
1.5499556
1.5242642
1.5032379
1.4858389
1.4712913
1.459006
1.4485303
1.4395123
1.4316754
22.799197
22.561413
21.850769
21.099489
20.07459
18.200789
14.961708
10.784987
7.3831246
5.2706038
3.9961066
3.1996841
2.6721372
2.3249959
2.0962622
1.9373794
1.8226513
1.7372695
1.6721935
1.6216813
1.5818901
1.5501139
1.5244134
1.5033799
1.4859752
1.4714231
1.4591343
1.4486558
1.4396356
1.4317968
22.801363
22.563752
21.85365
21.102957
20.079264
18.208311
14.973915
10.798566
7.3919785
5.2751848
3.9983779
3.2008835
2.6728703
2.3255245
2.0966721
1.9377104
1.8229274
1.7375063
1.6724017
1.6218685
1.5820615
1.5502734
1.5245637
1.503523
1.4861127
1.4715561
1.4592637
1.4487824
1.4397599
1.4319194
22.803525
22.56609
21.856533
21.10643
20.083944
18.215842
14.98614
10.812186
7.4008709
5.2797846
4.0006559
3.2020864
2.6736059
2.3260554
2.097084
1.9380432
1.8232051
1.7377446
1.6726113
1.622057
1.5822342
1.550434
1.5247151
1.5036671
1.4862512
1.4716901
1.4593941
1.44891
1.4398852
1.4320428
22.805686
22.568427
21.859418
21.109905
20.088629
18.223381
14.998384
10.825851
7.4098032
5.284403
4.0029426
3.2032926
2.674344
2.3265886
2.097498
1.9383779
1.8234844
1.7379843
1.6728223
1.6222468
1.5824081
1.5505959
1.5248677
1.5038125
1.4863909
1.4718252
1.4595257
1.4490387
1.4400116
1.4321673
22.807844
22.570763
21.862304
21.113384
20.09332
18.230931
15.010645
10.83956
7.4187752
5.2890401
4.0052379
3.2045024
2.6750848
2.3271242
2.0979139
1.9387142
1.8237653
1.7382256
1.6730346
1.6224378
1.5825832
1.5507589
1.5250213
1.5039588
1.4865315
1.4719613
1.4596581
1.4491682
1.4401388
1.4322927
22.809999
22.573097
21.865193
21.116866
20.098018
18.238488
15.022927
10.853312
7.4277867
5.2936967
4.0075396
3.2057156
2.675828
2.327662
2.0983318
1.9390524
1.8240478
1.7384683
1.6732484
1.6226301
1.5827596
1.5509231
1.5251761
1.5041063
1.4866732
1.4720985
1.4597916
1.4492988
1.4402671
1.4324191
22.812152
22.57543
21.868085
21.120352
20.102721
18.246056
15.035225
10.867109
7.4368382
5.2983717
4.0098479
3.2069323
2.6765737
2.3282019
2.0987517
1.9393922
1.8243319
1.7387124
1.6734634
1.6228237
1.5829371
1.5510884
1.525332
1.5042549
1.486816
1.4722366
1.4599261
1.4494304
1.4403963
1.4325464
22.814303
22.577762
21.870979
21.123841
20.107431
18.253632
15.047542
10.880947
7.445929
5.3030663
4.0121651
3.2081527
2.677322
2.328744
2.0991736
1.9397338
1.8246175
1.738958
1.6736798
1.6230186
1.5831159
1.5512549
1.5254891
1.5044046
1.4869599
1.4723759
1.4600617
1.449563
1.4405266
1.4326748
22.816453
22.580093
21.873875
21.127334
20.112145
18.261215
15.059875
10.894829
7.4550611
5.30778
4.0144911
3.2093764
2.6780726
2.3292883
2.0995973
1.9400772
1.8249047
1.7392049
1.6738975
1.6232147
1.5832958
1.5514225
1.5256472
1.5045553
1.4871047
1.472516
1.4601982
1.4496965
1.4406577
1.432804
22.8186
22.582422
21.876773
21.13083
20.116865
18.268809
15.072228
10.908755
7.4642325
5.312513
4.0168233
3.2106035
2.6788256
2.3298347
2.1000231
1.9404223
1.8251935
1.7394534
1.6741166
1.6234121
1.5834769
1.5515913
1.5258065
1.5047071
1.4872506
1.4726573
1.4603357
1.4498311
1.4407899
1.4329343
22.820745
22.58475
21.879673
21.13433
20.121591
18.276411
15.084599
10.922725
7.4734447
5.3172657
4.0191622
3.2118342
2.6795812
2.3303833
2.1004507
1.9407691
1.8254838
1.7397032
1.674337
1.6236107
1.5836593
1.5517612
1.5259668
1.5048599
1.4873976
1.4727996
1.4604742
1.4499666
1.440923
1.4330654
22.822887
22.587077
21.882575
21.137834
20.126322
18.284022
15.096985
10.936736
7.4826978
5.3220377
4.0215102
3.2130685
2.6803394
2.330934
2.1008803
1.9411176
1.8257757
1.7399545
1.6745587
1.6238105
1.5838428
1.5519323
1.5261282
1.5050139
1.4875456
1.4729429
1.4606138
1.4501032
1.4410571
1.4331976
22.825027
22.589403
21.885478
21.141341
20.131059
18.291641
15.109389
10.950794
7.4919912
5.3268293
4.0238672
3.2143063
2.6810999
2.331487
2.1013117
1.9414678
1.826069
1.7402072
1.6747816
1.6240116
1.5840274
1.5521044
1.5262907
1.5051688
1.4876946
1.4730872
1.4607543
1.4502406
1.4411921
1.4333306
22.827165
22.591728
21.888383
21.144852
20.1358
18.299267