/*--------------------------------*- C++ -*----------------------------------*\
| =========                 |                                                 |
| \\      /  F ield         | OpenFOAM: The Open Source CFD Toolbox           |
|  \\    /   O peration     | Version:  v2012                                 |
|   \\  /    A nd           | Website:  www.openfoam.com                      |
|    \\/     M anipulation  |                                                 |
\*---------------------------------------------------------------------------*/
FoamFile
{
    version     2.0;
    format      ascii;
    class       volScalarField;
    location    "300";
    object      T;
}
// * * * * * * * * * * * * * * * * * * * * * * * * * * * * * * * * * * * * * //

dimensions      [0 0 0 1 0 0 0];


internalField   nonuniform List<scalar> 
24000
(
42.49969
42.636063
43.096687
43.688542
44.695255
47.243157
54.835833
72.755827
98.573085
129.45158
163.80392
200.25187
237.70771
272.12756
300.97679
324.88812
344.65647
361.00676
374.55593
385.80273
395.15738
402.96596
409.51395
415.03337
419.7118
423.70085
427.12342
430.0794
432.65026
434.9027
42.498675
42.635012
43.095332
43.686789
44.692719
47.238054
54.795779
72.605665
98.320216
129.11645
163.40165
199.78989
237.21511
271.65209
300.52833
324.46875
344.26409
360.63885
374.20945
385.47393
394.84208
402.66031
409.2148
414.73846
419.4196
423.41045
426.8343
429.79132
432.36315
434.61655
42.497626
42.633967
43.094014
43.684968
44.689271
47.227145
54.751557
72.504044
98.183372
128.95724
163.22093
199.5871
236.99195
271.42672
300.3054
324.25013
344.04831
360.42698
374.00327
385.27506
394.65083
402.47583
409.03567
414.56318
419.24692
423.23946
426.66442
429.62222
432.19469
434.44868
42.496574
42.632885
43.092557
43.682871
44.685365
47.21612
54.713346
72.421439
98.081115
128.85021
163.11026
199.47764
236.88731
271.33704
300.23261
324.19752
344.02126
360.42286
374.01646
385.29949
394.68168
402.50998
409.07143
414.59973
419.28393
423.27679
426.70197
429.6599
432.23239
434.4863
42.495522
42.631781
43.091034
43.68066
44.681312
47.205249
54.677599
72.346027
97.992698
128.76394
163.02119
199.39124
236.8022
271.25322
300.15374
324.12491
343.95426
360.36068
373.95855
385.24548
394.63112
402.46235
409.02616
414.55627
419.24181
423.23563
426.66149
429.61989
432.19268
434.44677
42.494468
42.630659
43.089468
43.678392
44.677241
47.194607
54.643116
72.273672
97.909401
128.67987
162.94344
199.32204
236.73951
271.1962
300.10368
324.08207
343.91819
360.33049
373.93309
385.22356
394.61176
402.4448
409.0099
414.54095
419.22718
423.2215
426.64773
429.60638
432.17933
434.43349
42.493415
42.629524
43.087878
43.676098
44.673173
47.18409
54.609179
72.202484
97.826054
128.59946
162.87162
199.26075
236.68638
271.14824
300.06078
324.04389
343.88418
360.30003
373.90555
385.19839
394.58849
402.42305
408.98934
414.52133
419.20827
423.20314
426.62975
429.58867
432.16179
434.41605
42.492362
42.62838
43.086274
43.673792
44.669106
47.173625
54.575477
72.131742
97.742561
128.52096
162.80279
199.20348
236.63833
271.10551
300.02273
324.01011
343.85419
360.2733
373.88153
385.17652
394.56833
402.40424
408.97159
414.50439
419.19197
423.1873
426.61426
429.57342
432.14669
434.40103
42.49131
42.627231
43.084661
43.671477
44.665036
47.163192
54.541892
72.061145
97.658875
128.44331
162.73532
199.14811
236.59268
271.06519
299.98681
323.97809
343.82558
360.24762
373.85827
385.15522
394.54858
402.38573
408.95406
414.48764
419.1758
423.17159
426.59888
429.55826
432.13168
434.3861
42.490257
42.626079
43.083043
43.669155
44.66096
47.152757
54.508344
71.990532
97.574979
128.3659
162.66843
199.09365
236.54823
271.02609
299.95197
323.94695
343.79768
360.22249
373.83542
385.13421
394.52905
402.36737
408.93664
414.47095
419.15969
423.1559
426.58351
429.54312
432.11668
434.37117
42.489206
42.624924
43.08142
43.666827
44.656875
47.142312
54.474814
71.919847
97.490854
128.28848
162.60168
199.03957
236.50432
270.9875
299.91755
323.91613
343.76998
360.19745
373.81257
385.11312
394.50938
402.34883
408.919
414.45403
419.14331
423.13995
426.56787
429.52769
432.1014
434.35597
42.488155
42.623767
43.079793
43.664493
44.652786
47.131861
54.44129
71.849039
97.406502
128.21091
162.5349
198.9856
236.46061
270.94909
299.88323
323.88533
343.74223
360.17229
373.78955
385.09182
394.48945
402.33001
408.90105
414.43677
419.1266
423.12365
426.55187
429.51191
432.08575
434.3404
42.487104
42.62261
43.078164
43.662154
44.648689
47.1214
54.407751
71.778106
97.321918
128.13308
162.46799
198.93161
236.4169
270.91065
299.84883
323.8544
343.71429
360.14689
373.76625
385.0702
394.46918
402.31082
408.88273
414.41913
419.10949
423.10694
426.53546
429.49571
432.06969
434.32442
42.486054
42.621451
43.076532
43.65981
44.644582
47.110935
54.374218
71.707031
97.237104
128.05498
162.4009
198.87753
236.3731
270.87206
299.81424
323.82323
343.68607
360.12118
373.74261
385.04822
394.44854
402.29124
408.864
414.40108
419.09196
423.08981
426.51863
429.47909
432.05322
434.30802
42.485005
42.620293
43.074897
43.657461
44.64047
47.100465
54.340672
71.635825
97.152063
127.9766
162.3336
198.8233
236.32915
270.83328
299.77941
323.79178
343.65755
360.09515
373.71862
385.02588
394.42751
402.27127
408.84487
414.38261
419.07401
423.07226
426.50137
429.46205
432.03631
434.2912
42.483957
42.619134
43.07326
43.655107
44.636355
47.089982
54.307127
71.56448
97.066792
127.89794
162.26606
198.76893
236.28504
270.79428
299.74432
323.76004
343.62871
360.06878
373.69428
385.00316
394.4061
402.2509
408.82534
414.36374
419.05565
423.0543
426.48371
429.44459
432.019
434.27397
42.482909
42.617977
43.07162
43.652749
44.632233
47.079493
54.273587
71.493005
96.9813
127.81896
162.19832
198.7144
236.24076
270.75507
299.70897
323.72802
343.59956
360.04208
373.6696
384.98011
394.38433
402.23017
408.80544
414.34449
419.03692
423.03595
426.46565
429.42675
432.00129
434.25635
42.481863
42.616821
43.069978
43.65039
44.628103
47.069
54.240038
71.421406
96.895581
127.73972
162.13039
198.65972
236.19631
270.71563
299.67335
323.6957
343.57011
360.01506
373.64458
384.95669
394.36221
402.20908
408.78517
414.32488
419.01782
423.01724
426.44724
429.40854
431.98323
434.23837
42.480817
42.615664
43.068335
43.648028
44.623965
47.058502
54.206506
71.349678
96.809646
127.66022
162.06227
198.6049
236.15171
270.67598
299.63748
323.6631
343.54035
359.98772
373.61924
384.93296
394.33975
402.18765
408.76456
414.30491
418.99836
422.99818
426.42846
429.38998
431.96481
434.22003
42.479771
42.614508
43.066689
43.645662
44.619821
47.048008
54.172967
71.277841
96.723489
127.58045
161.99396
198.54996
236.10696
270.63612
299.60136
323.63023
343.5103
359.96008
373.59359
384.9089
394.31697
402.16589
408.74362
414.28462
418.97857
422.97878
426.40936
429.37108
431.94605
434.20137
42.478727
42.613351
43.065044
43.643294
44.61567
47.037506
54.139444
71.20588
96.637119
127.50046
161.92546
198.4949
236.06207
270.59606
299.565
323.59709
343.47997
359.93215
373.56764
384.88454
394.29388
402.14382
408.72236
414.264
418.95846
422.95906
426.38992
429.35186
431.92697
434.18237
42.477683
42.612195
43.063397
43.640924
44.611513
47.026996
54.105931
71.133819
96.550534
127.42024
161.85681
198.43973
236.01705
270.5558
299.5284
323.56368
343.44936
359.90393
373.54139
384.85987
394.27048
402.12144
408.70079
414.24307
418.93804
422.93902
426.37018
429.33233
431.90759
434.16307
42.476642
42.611039
43.061748
43.638549
44.607355
47.01649
54.072421
71.061641
96.463737
127.33978
161.788
198.38445
235.97189
270.51535
299.49156
323.53002
343.41847
359.87542
373.51485
384.8349
394.24678
402.09875
408.67891
414.22184
418.91731
422.91868
426.35013
429.31249
431.88789
434.14347
42.475603
42.609883
43.0601
43.636171
44.60319
47.005976
54.038935
70.989369
96.376732
127.2591
161.71905
198.32907
235.92662
270.47471
299.4545
323.49611
343.38731
359.84664
373.48802
384.80965
394.22279
402.07577
408.65674
414.20031
418.89628
422.89804
426.32978
429.29235
431.8679
434.12357
42.474564
42.608727
43.058452
43.633789
44.599019
46.995472
54.005445
70.916989
96.289516
127.17822
161.64993
198.27358
235.88123
270.4339
299.41722
323.46195
343.3559
359.81758
373.46093
384.78413
394.19852
402.05251
408.63428
414.17849
418.87496
422.8771
426.30914
429.27192
431.84761
434.10337
42.473527
42.607571
43.056802
43.631403
44.594845
46.984962
53.971985
70.844516
96.202096
127.09712
161.58067
198.21801
235.83573
270.39292
299.37972
323.42755
343.32423
359.78826
373.43355
384.75831
394.17396
402.02896
408.61153
414.15638
418.85336
422.85589
426.28821
429.25121
431.82705
434.0829
42.47249
42.606416
43.05515
43.629014
44.59067
46.974446
53.938533
70.771947
96.114468
127.01581
161.51127
198.16236
235.79013
270.35177
299.34202
323.39291
343.29231
359.75868
373.40591
384.73223
394.14914
402.00514
408.58851
414.134
418.83147
422.83439
426.26701
429.23022
431.80621
434.06215
42.471454
42.605261
43.053496
43.626621
44.586489
46.963933
53.905091
70.699283
96.026641
126.9343
161.44175
198.10662
235.74442
270.31046
299.30411
323.35804
343.26014
359.72884
373.378
384.70589
394.12404
401.98104
408.56522
414.11134
418.80932
422.81263
426.24554
429.20896
431.7851
434.04114
42.470419
42.604106
43.051841
43.624225
44.582303
46.953415
53.871678
70.626534
95.938609
126.85259
161.3721
198.05081
235.69862
270.26898
299.26599
323.32294
343.22773
359.69876
373.34985
384.67929
394.09869
401.95669
408.54167
414.08843
418.7869
422.79059
426.22379
429.18743
431.76372
434.01985
42.469385
42.602952
43.050185
43.621825
44.578111
46.942902
53.838263
70.553687
95.850379
126.77067
161.3023
197.99494
235.65272
270.22735
299.22768
323.28762
343.19507
359.66842
373.32143
384.65242
394.07307
401.93207
408.51785
414.06524
418.76422
422.7683
426.2018
429.16565
431.74208
433.99831
42.468352
42.601798
43.048527
43.619421
44.573913
46.932389
53.804884
70.480766
95.761949
126.68855
161.23238
197.93898
235.60674
270.18557
299.18917
323.25207
343.16218
359.63783
373.29277
384.6253
394.04719
401.90719
408.49377
414.0418
418.74127
422.74574
426.17953
429.1436
431.72018
433.97651
42.467319
42.600644
43.046868
43.617014
44.569709
46.92187
53.77151
70.407748
95.673324
126.60625
161.16233
197.88295
235.56066
270.14363
299.15045
323.21629
343.12904
359.60699
373.26384
384.59792
394.02105
401.88205
408.46943
414.01809
418.71807
422.72292
426.157
429.12129
431.69803
433.95445
42.466288
42.599491
43.045207
43.614604
44.565503
46.911353
53.738154
70.334658
95.584503
126.52373
161.09217
197.82684
235.51449
270.10153
299.11154
323.18029
343.09567
359.57591
373.23467
384.5703
393.99467
401.85666
408.44483
413.99413
418.6946
422.69984
426.13422
429.09872
431.67561
433.93213
42.465257
42.598339
43.043544
43.612191
44.561294
46.900834
53.704825
70.26148
95.495489
126.44103
161.02189
197.77066
235.46822
270.05928
299.07242
323.14406
343.06205
359.54457
373.20524
384.5424
393.96801
401.831
408.41997
413.9699
418.67088
422.67651
426.11118
429.0759
431.65294
433.90956
42.464228
42.597187
43.041881
43.609777
44.557079
46.890314
53.671498
70.188224
95.406283
126.35814
160.95147
197.71442
235.42186
270.01687
299.03311
323.10761
343.02819
359.51298
373.17555
384.51425
393.9411
401.80508
408.39485
413.94541
418.64689
422.65291
426.08788
429.05281
431.63001
433.88673
42.463199
42.596037
43.040216
43.607363
44.552859
46.879801
53.638209
70.114893
95.316886
126.27503
160.88093
197.65811
235.37542
269.97431
298.99359
323.07092
342.99409
359.48115
373.14561
384.48584
393.91392
401.7789
408.36946
413.92066
418.62264
422.62905
426.06431
429.02947
431.60682
433.86364
42.462171
42.594888
43.03855
43.604945
44.548639
46.869282
53.604922
70.041475
95.227301
126.19174
160.81027
197.60173
235.32888
269.93158
298.95388
323.03402
342.95975
359.44906
373.11542
384.45719
393.8865
401.75246
408.34382
413.89566
418.59813
422.60493
426.04049
429.00586
431.58337
433.84029
42.461144
42.593739
43.036882
43.602528
44.544417
46.858762
53.571665
69.967997
95.137526
126.10826
160.7395
197.54529
235.28224
269.8887
298.91396
322.99688
342.92517
359.41672
373.08496
384.42826
393.8588
401.72576
408.31791
413.87039
418.57336
422.58055
426.01641
428.982
431.55966
433.81669
42.460118
42.59259
43.035213
43.600108
44.54019
46.848244
53.538426
69.894431
95.047568
126.02457
160.66861
197.48878
235.23551
269.84567
298.87384
322.95953
342.89034
359.38414
373.05425
384.39907
393.83085
401.69879
408.29174
413.84485
418.54833
422.55591
425.99206
428.95787
431.53569
433.79282
42.459093
42.591442
43.033543
43.597685
44.535958
46.837721
53.505197
69.820804
94.957422
125.94069
160.59758
197.43218
235.18869
269.80246
298.83352
322.92193
342.85527
359.35129
373.02328
384.36963
393.80263
401.67156
408.26531
413.81905
418.52302
422.53099
425.96745
428.93348
431.51146
433.76869
42.458071
42.590295
43.031872
43.595258
44.53172
46.827209
53.472006
69.747099
94.867094
125.85663
160.52644
197.37552
235.14176
269.75909
298.79298
322.88411
342.81995
359.31819
372.99206
384.33992
393.77415
401.64407
408.23861
413.79298
418.49746
422.50581
425.94256
428.90882
431.48695
433.74429
42.457049
42.589148
43.030199
43.592829
44.527478
46.816691
53.438815
69.673324
94.776583
125.77236
160.45519
197.31879
235.09474
269.71557
298.75224
322.84604
342.78438
359.28482
372.96055
384.30994
393.74539
401.6163
408.21163
413.76664
418.47162
422.48037
425.91742
428.8839
431.46219
433.71964
42.456029
42.588001
43.028527
43.590397
44.523232
46.806173
53.405667
69.599487
94.685893
125.6879
160.38382
197.262
235.04763
269.67188
298.7113
322.80776
342.74857
359.25121
372.9288
384.2797
393.71637
401.58827
408.18439
413.74003
418.44551
422.45466
425.89201
428.85871
431.43716
433.69472
42.455009
42.586856
43.026855
43.587963
44.518986
46.795657
53.372527
69.525572
94.595023
125.60325
160.31232
197.20514
235.00041
269.62804
298.67016
322.76925
342.71251
359.21735
372.89679
384.2492
393.68709
401.55997
408.15689
413.71316
418.41914
422.42868
425.86633
428.83325
431.41187
433.66953
42.45399
42.585711
43.025181
43.585525
44.514736
46.785137
53.339411
69.451607
94.503976
125.5184
160.2407
197.14821
234.9531
269.58403
298.62881
322.7305
342.67621
359.18324
372.86453
384.21844
393.65756
401.53142
408.12912
413.68603
418.39251
422.40243
425.84038
428.80753
431.3863
433.64408
42.452973
42.584566
43.023507
43.583085
44.51048
46.774627
53.306326
69.377569
94.412752
125.43335
160.16897
197.09121
234.90569
269.53986
298.58726
322.69152
342.63966
359.14886
372.832
384.18741
393.62774
401.50258
408.10108
413.65862
418.36561
422.37592
425.81417
428.78155
431.36048
433.61837
42.451956
42.583422
43.021835
43.580642
44.506221
46.764116
53.273247
69.303474
94.321354
125.34813
160.09712
197.03414
234.85819
269.49554
298.54551
322.65232
342.60287
359.11424
372.79921
384.15613
393.59767
401.47349
408.07278
413.63095
418.33843
422.34914
425.78769
428.75529
431.33439
433.59239
42.45094
42.582282
43.020163
43.578196
44.501965
46.753603
53.240216
69.229319
94.229781
125.2627
160.02517
196.977
234.81059
269.45105
298.50355
322.61288
342.56584
359.07935
372.76616
384.12457
393.56733
401.44413
408.0442
413.60301
418.31099
422.32209
425.76095
428.72877
431.30804
433.56614
42.449925
42.581142
43.018489
43.575748
44.497706
46.743095
53.207189
69.155096
94.138036
125.17708
159.95307
196.91978
234.76288
269.4064
298.46138
322.57322
342.52855
359.04422
372.73285
384.09276
393.53672
401.4145
408.01537
413.5748
418.28328
422.29477
425.73393
428.70198
431.28141
433.53962
42.448911
42.580003
43.016814
43.573298
44.493442
46.732583
53.174201
69.080832
94.04612
125.09128
159.88087
196.8625
234.71508
269.36158
298.419
322.53331
342.49101
359.00881
372.69927
384.06067
393.50584
401.3846
407.98625
413.54631
418.2553
422.26719
425.70665
428.67492
431.25452
433.51285
42.447899
42.578864
43.015138
43.570845
44.489174
46.722079
53.141234
69.006498
93.954033
125.00528
159.80856
196.80516
234.66718
269.31661
298.37643
322.49318
342.45324
358.97317
372.66544
384.02832
393.4747
401.35443
407.95686
413.51756
418.22705
422.23933
425.67909
428.64759
431.22735
433.4858
42.446887
42.577726
43.013462
43.568395
44.484902
46.711578
53.108286
68.932119
93.861778
124.91909
159.73613
196.74775
234.61919
269.27147
298.33366
322.45283
342.41521
358.93726
372.63134
383.9957
393.44328
401.32399
407.92721
413.48853
418.19852
422.21119
425.65126
428.61999
431.19992
433.45848
42.445876
42.576589
43.011784
43.565942
44.480627
46.701076
53.075381
68.857684
93.769355
124.83272
159.66359
196.69026
234.57109
269.22617
298.29067
322.41224
342.37695
358.9011
372.59699
383.96283
393.41161
401.29328
407.89729
413.45924
418.16972
422.18279
425.62316
428.59212
431.17221
433.43089
42.444866
42.575452
43.010105
43.56349
44.476352
46.69058
53.04248
68.783192
93.676765
124.74615
159.59092
196.63268
234.5229
269.18071
298.24748
322.37142
342.33842
358.86468
372.56236
383.92967
393.37965
401.2623
407.86709
413.42967
418.14066
422.15412
425.59479
428.56398
431.14425
433.40304
42.443857
42.574316
43.008426
43.561037
44.472075
46.680081
53.009636
68.708663
93.58401
124.65939
159.51814
196.57504
234.47461
269.13509
298.20409
322.33037
342.29967
358.82801
372.52748
383.89627
393.34744
401.23105
407.83662
413.39983
418.11132
422.12517
425.56615
428.53557
431.116
433.37491
42.442849
42.573181
43.006745
43.558582
44.467794
46.669588
52.976801
68.634072
93.49109
124.57246
159.44525
196.51733
234.42621
269.0893
298.1605
322.28909
342.26066
358.79108
372.49233
383.86259
393.31495
401.19953
407.80588
413.36972
418.0817
422.09595
425.53723
428.50689
431.08749
433.34652
42.441844
42.572046
43.005064
43.556124
44.463509
46.659102
52.944002
68.559445
93.398008
124.48531
159.37225
196.45955
234.37772
269.04335
298.11669
322.24759
342.22141
358.7539
372.45693
383.82865
393.2822
401.16775
407.77487
413.33933
418.05182
422.06646
425.50804
428.47793
431.0587
433.31785
42.44084
42.570912
43.003382
43.553664
44.459226
46.648614
52.911234
68.48477
93.304763
124.39798
159.29912
196.40169
234.32912
268.99723
298.07268
322.20584
342.1819
358.71644
372.42125
383.79442
393.24917
401.13567
407.74358
413.30867
418.02166
422.03669
425.47858
428.4487
431.02964
433.28891
42.439838
42.569779
43.001699
43.551201
44.454943
46.638135
52.878484
68.410043
93.211358
124.31047
159.22587
196.34377
234.28042
268.95096
298.02846
322.16387
342.14215
358.67874
372.38531
383.75994
393.21587
401.10334
407.71202
413.27773
417.99122
422.00665
425.44884
428.4192
431.00031
433.2597
42.438837
42.568646
43.000015
43.548737
44.450657
46.627655
52.845788
68.335288
93.117793
124.22275
159.15252
196.28578
234.23163
268.90452
297.98404
322.12166
342.10215
358.64078
372.34911
383.72519
393.1823
401.07073
407.68019
413.24652
417.96051
421.97633
425.41883
428.38942
430.9707
433.23021
42.437837
42.567514
42.99833
43.546271
44.446368
46.617177
52.8131
68.260478
93.024069
124.13484
159.07907
196.2277
234.18273
268.85791
297.93942
322.07923
342.06192
358.60258
372.31266
383.69019
393.14847
401.03785
407.64809
413.21504
417.92953
421.94574
425.38855
428.35937
430.94083
433.20046
42.436837
42.566383
42.996644
43.543802
44.442075
46.606711
52.780466
68.185639
92.930187
124.04676
159.0055
196.16955
234.13373
268.81114
297.89459
322.03656
342.02143
358.5641
372.27593
383.6549
393.11436
401.0047
407.61571
413.18329
417.89827
421.91488
425.358
428.32905
430.91068
433.17044
42.435839
42.565252
42.994957
43.541332
44.43778
46.596243
52.747852
68.110761
92.836148
123.95846
158.9318
196.11135
234.08464
268.76421
297.84956
321.99367
341.9807
358.52538
372.23895
383.61936
393.07999
400.97128
407.58306
413.15126
417.86675
421.88374
425.32717
428.29846
430.88026
433.14015
42.434842
42.564123
42.99327
43.538859
44.433485
46.585785
52.715274
68.035837
92.741954
123.86998
158.858
196.05307
234.03544
268.71711
297.80432
321.95054
341.93972
358.4864
372.2017
383.58355
393.04535
400.93759
407.55014
413.11896
417.83494
421.85233
425.29606
428.26759
430.84957
433.10958
42.433846
42.562993
42.991584
43.536385
44.42919
46.575328
52.682737
67.960895
92.647606
123.78131
158.7841
195.99473
233.98614
268.66985
297.75887
321.90719
341.8985
358.44717
372.1642
383.54747
393.01044
400.90363
407.51695
413.08639
417.80286
421.82065
425.26469
428.23645
430.8186
433.07874
42.432852
42.561867
42.989897
43.533909
44.424892
46.564871
52.650217
67.885907
92.553104
123.69243
158.7101
195.93633
233.93675
268.62243
297.71322
321.8636
341.85702
358.40767
372.12642
383.51112
392.97525
400.86939
407.48347
413.05354
417.77051
421.78869
425.23304
428.20503
430.78737
433.04763
42.431858
42.560741
42.98821
43.53143
44.420591
46.554429
52.61776
67.810893
92.45845
123.60337
158.63596
195.87786
233.88726
268.57485
297.66738
321.81979
341.81531
358.36793
372.08839
383.47451
392.9398
400.83488
407.44973
413.02042
417.73788
421.75645
425.20111
428.17334
430.75586
433.01625
42.430865
42.559616
42.986522
43.528954
44.416288
46.543987
52.585315
67.735853
92.363644
123.51412
158.56172
195.81932
233.83767
268.52711
297.62133
321.77575
341.77335
358.32792
372.05009
383.43763
392.90407
400.80009
407.41571
412.98701
417.70498
421.72394
425.16891
428.14138
430.72407
432.98459
42.429874
42.558491
42.984836
43.526477
44.411991
46.533555
52.552925
67.66077
92.26869
123.42466
158.48738
195.76071
233.78798
268.47921
297.57507
321.73148
341.73114
358.28766
372.01154
383.40048
392.86808
400.76504
407.38142
412.95334
417.67179
421.69115
425.13643
428.10913
430.692
432.95265
42.428883
42.557367
42.98315
43.524002
44.407691
46.523124
52.520563
67.585679
92.173586
123.33501
158.41294
195.70205
233.7382
268.43115
297.5286
321.68697
341.68867
358.24713
371.9727
383.36305
392.8318
400.7297
407.34684
412.91938
417.63833
421.65808
425.10367
428.07661
430.65966
432.92044
42.427894
42.556244
42.981464
43.521526
44.403388
46.512694
52.488237
67.510552
92.078335
123.24516
158.33837
195.64333
233.68832
268.38294
297.48195
321.64225
341.64598
358.20636
371.93361
383.32536
392.79526
400.69409
407.31199
412.88514
417.60459
421.62474
425.07063
428.04381
430.62704
432.88796
42.426906
42.555122
42.979776
43.519048
44.399083
46.50228
52.455961
67.435398
91.982937
123.15511
158.26369
195.58456
233.63836
268.33457
297.4351
321.5973
341.60304
358.16533
371.89426
383.2874
392.75845
400.65821
407.27687
412.85063
417.57057
421.59111
425.03731
428.01074
430.59415
432.8552
42.425919
42.554
42.978089
43.516568
44.394776
46.491868
52.423702
67.360233
91.887394
123.06488
158.18892
195.52573
233.58831
268.28605
297.38805
321.55213
341.55987
358.12406
371.85466
383.24919
392.72138
400.62207
407.24148
412.81586
417.53629
421.55722
425.00373
427.97739
430.56098
432.82216
42.424933
42.552879
42.9764
43.514087
44.390469
46.481466
52.391514
67.285033
91.791708
122.97443
158.11404
195.46684
233.53816
268.23737
297.34081
321.50673
341.51644
358.08252
371.81478
383.2107
392.68402
400.58564
407.20581
412.7808
417.50172
421.52305
424.96987
427.94377
430.52755
432.78886
42.42395
42.551759
42.974711
43.511604
44.386163
46.471066
52.359341
67.209823
91.69588
122.88378
158.03906
195.40788
233.48793
268.18854
297.29337
321.46112
341.47279
358.04074
371.77465
383.17195
392.6464
400.54895
407.16987
412.74547
417.46688
421.4886
424.93572
427.90987
430.49383
432.75528
42.422968
42.550639
42.973021
43.509119
44.381855
46.460668
52.327224
67.134594
91.599908
122.79294
157.96396
195.34888
233.43761
268.13955
297.24574
321.41528
341.42889
357.99871
371.73426
383.13293
392.60851
400.51198
407.13365
412.70985
417.43176
421.45387
424.9013
427.87569
430.45983
432.72142
42.421987
42.54952
42.97133
43.506633
44.377545
46.450284
52.295143
67.059337
91.503794
122.70189
157.88877
195.28982
233.38721
268.09043
297.19792
321.36924
341.38477
357.95644
371.69363
383.09367
392.57037
400.47475
407.09717
412.67398
417.39637
421.41887
424.86661
427.84124
430.42556
432.68729
42.421008
42.548402
42.969639
43.504145
44.373232
46.439905
52.263098
66.984082
91.407539
122.61065
157.81348
195.23072
233.33672
268.04116
297.14991
321.32296
341.3404
357.91391
371.65272
383.05412
392.53194
400.43724
407.0604
412.63782
417.3607
421.3836
424.83165
427.80652
430.39103
432.65289
42.420029
42.547286
42.967947
43.501656
44.368925
46.429537
52.23111
66.908802
91.31115
122.51919
157.7381
195.17158
233.28615
267.99175
297.10173
321.27648
341.29581
357.87114
371.61158
383.01433
392.49326
400.39947
407.02337
412.6014
417.32476
421.34805
424.79641
427.77152
430.35622
432.61822
42.419052
42.546172
42.966254
43.499165
44.364618
46.419173
52.199142
66.833507
91.214634
122.4275
157.6626
195.11238
233.2355
267.94219
297.05335
321.22979
341.25098
357.82812
371.57017
382.97427
392.45431
400.36142
406.98607
412.56469
417.28854
421.31222
424.76089
427.73624
430.32113
432.58327
42.418076
42.545058
42.964561
43.496672
44.360308
46.40881
52.167246
66.758213
91.117998
122.33559
157.58702
195.05313
233.18477
267.89249
297.00478
321.18288
341.20592
357.78487
371.52852
382.93396
392.4151
400.32312
406.9485
412.52772
417.25206
421.27612
424.7251
427.7007
430.28577
432.54805
42.417102
42.543946
42.962867
43.494178
44.355996
46.398461
52.135373
66.682895
91.021213
122.24348
157.51134
194.99382
233.13396
267.84266
296.95604
321.13576
341.16063
357.74136
371.4866
382.89338
392.37562
400.28454
406.91066
412.49048
417.2153
421.23976
424.68905
427.66488
430.25014
432.51256
42.416128
42.542834
42.961172
43.491683
44.351683
46.388119
52.103557
66.607575
90.924264
122.1512
157.43558
194.93447
233.08308
267.79269
296.90712
321.08845
341.11512
357.69763
371.44445
382.85255
392.33589
400.24571
406.87256
412.45297
417.17828
421.20312
424.65272
427.6288
430.21424
432.47681
42.415156
42.541722
42.959477
43.489189
44.347371
46.377788
52.071782
66.532251
90.827149
122.05876
157.35972
194.87508
233.03211
267.74258
296.85802
321.04093
341.06938
357.65365
371.40204
382.81147
392.29589
400.2066
406.83418
412.41519
417.14098
421.16621
424.61612
427.59244
430.17807
432.44078
42.414185
42.540612
42.957781
43.486696
44.34306
46.367463
52.040045
66.456909
90.72987
121.96614
157.28377
194.81564
232.98107
267.69233
296.80876
320.99321
341.02344
357.60945
371.35941
382.77015
392.25565
400.16725
406.79555
412.37715
417.10342
421.12903
424.57925
427.55582
430.14164
432.40449
42.413216
42.539502
42.956085
43.484206
44.338748
46.357139
52.008371
66.381577
90.632423
121.87335
157.20773
194.75616
232.92996
267.64196
296.75931
320.94528
340.97725
357.565
371.31651
382.72855
392.21514
400.12762
406.75665
412.33884
417.06559
421.09159
424.54212
427.51893
430.10494
432.36794
42.412247
42.538392
42.95439
43.481714
44.334434
46.346827
51.976721
66.306236
90.534812
121.78041
157.1316
194.69664
232.87877
267.59145
296.7097
320.89716
340.93087
357.52033
371.27338
382.68673
392.17438
400.08774
406.71749
412.30027
417.0275
421.05388
424.50471
427.48177
430.06797
432.33111
42.411281
42.537284
42.952695
43.479221
44.330118
46.336526
51.945143
66.230886
90.437037
121.68727
157.05538
194.63706
232.82751
267.54081
296.65991
320.84884
340.88426
357.47543
371.23001
382.64465
392.13337
400.0476
406.67807
412.26144
416.98914
421.0159
424.46705
427.44435
430.03074
432.29403
42.410315
42.536176
42.951
43.476727
44.325807
46.326236
51.913594
66.155548
90.339097
121.59398
156.97905
194.57742
232.77617
267.49004
296.60996
320.80032
340.83744
357.4303
371.18641
382.60233
392.09212
400.00722
406.6384
412.22235
416.95052
420.97767
424.42912
427.40666
429.99325
432.25668
42.409351
42.535069
42.949304
43.474231
44.321497
46.315952
51.882101
66.080202
90.240991
121.50051
156.90263
194.51775
232.72476
267.43914
296.55983
320.7516
340.79039
357.38493
371.14255
382.55975
392.05059
399.96657
406.59846
412.18299
416.91164
420.93917
424.39093
427.36872
429.9555
432.21908
42.408388
42.533962
42.947609
43.471735
44.317186
46.305671
51.850657
66.004857
90.142721
121.40686
156.82613
194.45804
232.67328
267.38812
296.50955
320.70271
340.74315
357.33935
371.09847
382.51694
392.00883
399.92567
406.55827
412.14338
416.8725
420.90042
424.35248
427.33051
429.91748
432.18121
42.407426
42.532856
42.945916
43.469237
44.312873
46.295399
51.819251
65.929527
90.044289
121.31305
156.74954
194.39828
232.62173
267.33698
296.45911
320.65361
340.6957
357.29355
371.05416
382.47389
391.96682
399.88452
406.51782
412.10351
416.8331
420.8614
424.31377
427.29205
429.87921
432.14309
42.406469
42.531751
42.944223
43.466738
44.308559
46.285141
51.787913
65.854192
89.945691
121.21905
156.67283
194.33847
232.57011
267.28571
296.4085
320.60434
340.64804
357.24753
371.00963
382.43061
391.92458
399.84313
406.47714
412.0634
416.79345
420.82213
424.27481
427.25333
429.84068
432.10471
42.405512
42.530646
42.942528
43.464237
44.304247
46.274895
51.756603
65.778864
89.846928
121.12488
156.59602
194.27862
232.51842
267.23433
296.35773
320.55487
340.60017
357.20128
370.96485
382.38708
391.88208
399.80148
406.43619
412.02302
416.75354
420.7826
424.23559
427.21435
429.8019
432.06608
42.404557
42.529542
42.940834
43.461736
44.299937
46.264656
51.725364
65.703553
89.748002
121.03053
156.51914
194.21872
232.46667
267.18282
296.30681
320.50523
340.55211
357.15483
370.91985
382.34332
391.83935
399.75959
406.39499
411.98239
416.71338
420.74282
424.19611
427.17512
429.76286
432.02719
42.403603
42.528439
42.939138
43.459233
44.295625
46.25442
51.694161
65.62824
89.648914
120.93599
156.44216
194.15877
232.41485
267.1312
296.25573
320.4554
340.50384
357.10815
370.87463
382.29932
391.79637
399.71746
406.35355
411.94152
416.67297
420.70278
424.15638
427.13563
429.72357
431.98806
42.402651
42.527338
42.937443
43.456729
44.291312
46.244192
51.663016
65.552945
89.549663
120.84129
156.36506
194.09878
232.36296
267.07945
296.2045
320.4054
340.45538
357.06127
370.82919
382.25511
391.75318
399.6751
406.31187
411.9004
416.63232
420.6625
424.1164
427.0959
429.68403
431.94867
42.4017
42.526237
42.935747
43.454225
44.286998
46.233981
51.631922
65.477664
89.450245
120.74639
156.28786
194.03875
232.311
267.02759
296.15312
320.35521
340.40671
357.01417
370.78352
382.21065
391.70972
399.63247
406.26993
411.85903
416.59141
420.62197
424.07617
427.05592
429.64424
431.90904
42.400751
42.525138
42.93405
43.451719
44.282688
46.223782