/*--------------------------------*- C++ -*----------------------------------*\
| =========                 |                                                 |
| \\      /  F ield         | OpenFOAM: The Open Source CFD Toolbox           |
|  \\    /   O peration     | Version:  v2012                                 |
|   \\  /    A nd           | Website:  www.openfoam.com                      |
|    \\/     M anipulation  |                                                 |
\*---------------------------------------------------------------------------*/
FoamFile
{
    version     2.0;
    format      ascii;
    class       volVectorField;
    location    "300";
    object      U;
}
// * * * * * * * * * * * * * * * * * * * * * * * * * * * * * * * * * * * * * //

dimensions      [0 1 -1 0 0 0 0];


internalField   nonuniform List<vector> 
24000
(
(25.510554 -0.00049250838 0)
(25.710208 -0.00077837276 0)
(25.90354 0.00082936912 0)
(26.009564 0.0037445115 0)
(26.145897 0.0071020323 0)
(26.39658 0.0086484399 0)
(26.887418 -0.0038072782 0)
(27.857552 -0.034346282 0)
(29.385977 -0.064230718 0)
(31.179663 -0.079133147 0)
(32.800865 -0.084406161 0)
(33.747587 -0.084094461 0)
(33.55948 -0.081417615 0)
(32.010939 -0.076091068 0)
(29.468413 -0.068467591 0)
(26.367394 -0.059399491 0)
(23.065717 -0.050043659 0)
(19.809197 -0.041117238 0)
(16.74572 -0.03309821 0)
(13.95721 -0.025975852 0)
(11.47924 -0.019782993 0)
(9.3136478 -0.01452655 0)
(7.4432717 -0.010217743 0)
(5.8416309 -0.0068342381 0)
(4.4787105 -0.0043018223 0)
(3.3243298 -0.0025039563 0)
(2.3500131 -0.001303892 0)
(1.5299096 -0.00056370748 0)
(0.84111997 -0.00017060597 0)
(0.2636779 -7.2504333e-06 0)
(25.505559 -0.00072352976 0)
(25.705887 -0.0020275446 0)
(25.901063 -0.0029727202 0)
(26.011072 -0.0040744759 0)
(26.153567 -0.0062451049 0)
(26.41315 -0.010486773 0)
(26.914891 -0.017152582 0)
(27.889772 -0.02106983 0)
(29.417056 -0.021544439 0)
(31.209017 -0.022843146 0)
(32.832433 -0.024227015 0)
(33.788597 -0.025431004 0)
(33.619097 -0.026179359 0)
(32.093308 -0.02600222 0)
(29.573956 -0.025520719 0)
(26.49587 -0.024366336 0)
(23.218019 -0.022623584 0)
(19.987151 -0.020229195 0)
(16.950469 -0.017311154 0)
(14.186761 -0.014134612 0)
(11.72688 -0.011004207 0)
(9.5684788 -0.0081634615 0)
(7.6924194 -0.00575969 0)
(6.0727471 -0.0038469216 0)
(4.6817828 -0.0024098162 0)
(3.4925139 -0.0013913143 0)
(2.4796765 -0.00071482926 0)
(1.6202093 -0.00030170026 0)
(0.89339166 -8.7116027e-05 0)
(0.28081455 -2.106673e-06 0)
(25.502337 -0.00093110626 0)
(25.702619 -0.0028871097 0)
(25.897176 -0.0048443704 0)
(26.005217 -0.0068613595 0)
(26.14376 -0.0095345488 0)
(26.396302 -0.012863759 0)
(26.88605 -0.015083423 0)
(27.848268 -0.012607089 0)
(29.368131 -0.0088356838 0)
(31.157273 -0.0073569697 0)
(32.780728 -0.0064165514 0)
(33.739294 -0.0054105867 0)
(33.57464 -0.0042456883 0)
(32.054586 -0.0023360532 0)
(29.53975 -0.00027117783 0)
(26.463242 0.0018268579 0)
(23.183058 0.0035677454 0)
(19.944803 0.0046647821 0)
(16.895934 0.0050556757 0)
(14.117438 0.0048311547 0)
(11.643832 0.0041922723 0)
(9.4760847 0.0033593119 0)
(7.5969152 0.0025039326 0)
(5.9806027 0.0017434569 0)
(4.5985232 0.0011279818 0)
(3.4221481 0.00066657871 0)
(2.4246052 0.00034887446 0)
(1.5814094 0.00014986816 0)
(0.87071765 4.4111335e-05 0)
(0.2733117 1.1065465e-06 0)
(25.498308 -0.001149603 0)
(25.698434 -0.0037208466 0)
(25.892603 -0.0063451357 0)
(25.999879 -0.0087756225 0)
(26.137186 -0.011390588 0)
(26.387899 -0.013718513 0)
(26.875095 -0.013960833 0)
(27.834832 -0.0092722185 0)
(29.353155 -0.0036646125 0)
(31.142258 -0.00093838268 0)
(32.766613 0.00033478776 0)
(33.727439 0.00088355801 0)
(33.566439 0.00041607788 0)
(32.050977 4.634078e-06 0)
(29.541053 -0.00056187852 0)
(26.469211 -0.0010315666 0)
(23.192388 -0.0013741144 0)
(19.957479 -0.001617571 0)
(16.912748 -0.0017044609 0)
(14.139056 -0.0016267989 0)
(11.669968 -0.0014225231 0)
(9.5053942 -0.0011502515 0)
(7.6273969 -0.00086507569 0)
(6.0101357 -0.00060584864 0)
(4.6252817 -0.00039344868 0)
(3.4448055 -0.00023410496 0)
(2.4423656 -0.00012333444 0)
(1.5939432 -5.3245047e-05 0)
(0.87805785 -1.5740483e-05 0)
(0.27574797 -5.3535495e-07 0)
(25.494071 -0.0013474095 0)
(25.693913 -0.0043475261 0)
(25.887622 -0.0073006231 0)
(25.994197 -0.0097761609 0)
(26.130555 -0.012109688 0)
(26.380015 -0.013760272 0)
(26.86542 -0.013140162 0)
(27.822459 -0.007706724 0)
(29.338469 -0.0014537248 0)
(31.126147 0.0018892874 0)
(32.749186 0.0037052056 0)
(33.709613 0.004230066 0)
(33.549002 0.0040236318 0)
(32.035076 0.0034919452 0)
(29.527191 0.0029130363 0)
(26.457246 0.0023493527 0)
(23.181929 0.0018986331 0)
(19.947942 0.0015298333 0)
(16.903489 0.0012218425 0)
(14.129598 0.00095584537 0)
(11.660185 0.00072478986 0)
(9.4954863 0.00052859937 0)
(7.6177598 0.00036857561 0)
(6.0012103 0.00024403535 0)
(4.617445 0.00015171048 0)
(3.4383171 8.7248384e-05 0)
(2.437361 4.4778031e-05 0)
(1.5904517 1.8901283e-05 0)
(0.87602945 5.4616878e-06 0)
(0.27507892 1.1797418e-07 0)
(25.489601 -0.0015071527 0)
(25.689143 -0.0048080526 0)
(25.882504 -0.0079265298 0)
(25.988646 -0.010353851 0)
(26.124479 -0.012469733 0)
(26.373208 -0.013761729 0)
(26.857314 -0.012784578 0)
(27.812062 -0.0071012688 0)
(29.326038 -0.00055229714 0)
(31.11206 0.0031837887 0)
(32.734187 0.0052547391 0)
(33.69421 0.0058381959 0)
(33.533656 0.0054805919 0)
(32.020584 0.0046651339 0)
(29.514116 0.0037225809 0)
(26.445833 0.0027882711 0)
(23.172225 0.0020140637 0)
(19.939895 0.0013996368 0)
(16.89703 0.00094043653 0)
(14.124639 0.00061232629 0)
(11.656574 0.00038742706 0)
(9.4930119 0.00023845375 0)
(7.6161783 0.00014262779 0)
(6.0002821 8.2549001e-05 0)
(4.616961 4.5796355e-05 0)
(3.4381111 2.3907825e-05 0)
(2.4373101 1.1332777e-05 0)
(1.5904715 4.5046042e-06 0)
(0.87606508 1.2533009e-06 0)
(0.27509769 5.7680586e-09 0)
(25.48497 -0.0016300745 0)
(25.684224 -0.0051368064 0)
(25.877327 -0.0083373763 0)
(25.98318 -0.010705087 0)
(26.118656 -0.012683858 0)
(26.366794 -0.013793136 0)
(26.849663 -0.012659247 0)
(27.802136 -0.0068727306 0)
(29.313908 -0.00011982941 0)
(31.098349 0.0038642765 0)
(32.719465 0.0060497902 0)
(33.678794 0.0066515624 0)
(33.517801 0.0062903687 0)
(32.004977 0.0053800503 0)
(29.499418 0.0043336054 0)
(26.432484 0.0032921906 0)
(23.160436 0.0024265526 0)
(19.929701 0.0017366728 0)
(16.888355 0.0012144258 0)
(14.117346 0.00083127894 0)
(11.650501 0.00055716392 0)
(9.4880047 0.00036479995 0)
(7.6121005 0.00023225503 0)
(5.9970169 0.00014270826 0)
(4.6144072 8.3616634e-05 0)
(3.4361794 4.5794772e-05 0)
(2.435921 2.2600698e-05 0)
(1.5895531 9.2840561e-06 0)
(0.87555309 2.6593099e-06 0)
(0.27493486 3.6029429e-08 0)
(25.48022 -0.0017226492 0)
(25.67921 -0.0053725945 0)
(25.87213 -0.0086183902 0)
(25.977785 -0.010942134 0)
(26.112986 -0.012844312 0)
(26.360584 -0.013859869 0)
(26.842236 -0.012654421 0)
(27.792458 -0.006809845 0)
(29.301983 6.4399594e-05 0)
(31.08495 0.0041792853 0)
(32.705036 0.006430714 0)
(33.663585 0.0070490057 0)
(33.501984 0.0066829982 0)
(31.989182 0.0057209287 0)
(29.48435 0.0046122975 0)
(26.418658 0.0035035868 0)
(23.148139 0.0025778804 0)
(19.91903 0.0018383531 0)
(16.879283 0.0012784139 0)
(14.109775 0.00086882276 0)
(11.644282 0.00057760364 0)
(9.4829708 0.00037504597 0)
(7.608088 0.00023693121 0)
(5.9938749 0.00014464447 0)
(4.6120021 8.4374237e-05 0)
(3.4343956 4.6114636e-05 0)
(2.4346599 2.2785163e-05 0)
(1.5887312 9.4079554e-06 0)
(0.87510043 2.7250034e-06 0)
(0.27479252 6.7625159e-08 0)
(25.475383 -0.0017922511 0)
(25.674133 -0.0055449603 0)
(25.86692 -0.0088205368 0)
(25.972428 -0.011117982 0)
(26.10739 -0.012980928 0)
(26.354463 -0.013946656 0)
(26.834905 -0.012707941 0)
(27.782881 -0.0068228877 0)
(29.290141 0.00012412985 0)
(31.071654 0.0043080361 0)
(32.690683 0.0066196724 0)
(33.648393 0.0072478298 0)
(33.486079 0.0068899283 0)
(31.973166 0.0059041462 0)
(29.468952 0.0047677141 0)
(26.404432 0.0036265742 0)
(23.135412 0.0026716231 0)
(19.907928 0.0019072538 0)
(16.869802 0.0013275125 0)
(14.101826 0.00090273946 0)
(11.637721 0.0006002786 0)
(9.4776349 0.00038961385 0)
(7.6038147 0.00024583438 0)
(5.9905139 0.00014971786 0)
(4.609419 8.6975373e-05 0)
(3.432473 4.7239886e-05 0)
(2.4332964 2.3124398e-05 0)
(1.5878403 9.4156597e-06 0)
(0.8746084 2.6576282e-06 0)
(0.27463737 1.8139204e-08 0)
(25.470482 -0.0018452643 0)
(25.669011 -0.0056750718 0)
(25.8617 -0.0089744767 0)
(25.967089 -0.011259105 0)
(26.101827 -0.013104269 0)
(26.348381 -0.014042541 0)
(26.827619 -0.012789345 0)
(27.773352 -0.0068741144 0)
(29.278337 0.00012009054 0)
(31.058393 0.0043408203 0)
(32.676353 0.0067064492 0)
(33.633196 0.0073409495 0)
(33.470118 0.0069928213 0)
(31.957029 0.0059947599 0)
(29.45338 0.0048448687 0)
(26.390001 0.0036864349 0)
(23.122471 0.0027159058 0)
(19.896622 0.001938436 0)
(16.860138 0.0013485942 0)
(14.093721 0.00091653062 0)
(11.631036 0.0006090945 0)
(9.4722038 0.00039519528 0)
(7.5994716 0.00024938913 0)
(5.9871037 0.00015203181 0)
(4.6068025 8.8522252e-05 0)
(3.4305286 4.8278077e-05 0)
(2.4319193 2.3787337e-05 0)
(1.5869414 9.7798226e-06 0)
(0.8741124 2.8058683e-06 0)
(0.27448106 5.2526332e-08 0)
(25.465531 -0.0018865879 0)
(25.663854 -0.0057771958 0)
(25.856468 -0.0090982798 0)
(25.961754 -0.011379015 0)
(26.096276 -0.013218127 0)
(26.342315 -0.014140739 0)
(26.820351 -0.012882957 0)
(27.763842 -0.0069441725 0)
(29.266544 8.3943377e-05 0)
(31.045132 0.0043256707 0)
(32.662011 0.0067412605 0)
(33.61797 0.0073795677 0)
(33.454099 0.0070417975 0)
(31.940802 0.0060375525 0)
(29.437692 0.0048819804 0)
(26.37544 0.0037149406 0)
(23.109398 0.0027366827 0)
(19.88519 0.0019527537 0)
(16.850362 0.0013580128 0)
(14.085523 0.00092246484 0)
(11.624275 0.00061266372 0)
(9.4667129 0.00039722637 0)
(7.5950831 0.00025044674 0)
(5.98366 0.00015249319 0)
(4.6041621 8.8638179e-05 0)
(3.4285676 4.8222858e-05 0)
(2.4305312 2.3680553e-05 0)
(1.5860356 9.6973805e-06 0)
(0.87361266 2.7719894e-06 0)
(0.27432355 4.2815269e-08 0)
(25.460541 -0.0019197817 0)
(25.658669 -0.0058607127 0)
(25.851223 -0.0092026402 0)
(25.956414 -0.011484952 0)
(26.090725 -0.013324234 0)
(26.336253 -0.014237604 0)
(26.813091 -0.012980572 0)
(27.754341 -0.0070228762 0)
(29.25475 3.2018909e-05 0)
(31.031854 0.0042873812 0)
(32.647645 0.006749313 0)
(33.602709 0.0073888101 0)
(33.43803 0.0070608785 0)
(31.924507 0.0060538279 0)
(29.421926 0.0048964399 0)
(26.360798 0.003725477 0)
(23.096247 0.0027437565 0)
(19.873689 0.0019569841 0)
(16.840528 0.0013602704 0)
(14.077278 0.00092353244 0)
(11.617478 0.00061312496 0)
(9.4611971 0.00039745627 0)
(7.5906781 0.0002506471 0)
(5.9802061 0.00015274999 0)
(4.601516 8.8956225e-05 0)
(3.4266038 4.8555216e-05 0)
(2.429142 2.39666e-05 0)
(1.5851295 9.8865577e-06 0)
(0.87311282 2.8583925e-06 0)
(0.27416602 6.6846612e-08 0)
(25.45552 -0.0019473372 0)
(25.65346 -0.0059317063 0)
(25.845963 -0.009293953 0)
(25.951066 -0.011580968 0)
(26.085169 -0.013423615 0)
(26.330187 -0.014331424 0)
(26.805832 -0.013078038 0)
(27.744841 -0.0071048455 0)
(29.242951 -2.6725425e-05 0)
(31.018553 0.0042386385 0)
(32.633249 0.0067425974 0)
(33.587412 0.0073811738 0)
(33.421913 0.0070622175 0)
(31.908158 0.0060542459 0)
(29.406103 0.0048970847 0)
(26.346101 0.0037248088 0)
(23.083047 0.0027420461 0)
(19.862147 0.0019544466 0)
(16.830662 0.0013572708 0)
(14.069011 0.0009203984 0)
(11.610669 0.00061011521 0)
(9.4556759 0.00039473743 0)
(7.5862729 0.0002483082 0)
(5.9767553 0.00015081977 0)
(4.5988746 8.7432382e-05 0)
(3.424645 4.7422198e-05 0)
(2.4277571 2.3205135e-05 0)
(1.5842266 9.4602449e-06 0)
(0.87261492 2.6847809e-06 0)
(0.27400912 2.5719035e-08 0)
(25.450472 -0.0019709671 0)
(25.648229 -0.0059941262 0)
(25.840688 -0.0093761941 0)
(25.945708 -0.011669647 0)
(26.079604 -0.013517138 0)
(26.324117 -0.014421645 0)
(26.798574 -0.013173432 0)
(27.735342 -0.0071875975 0)
(29.231146 -8.8197218e-05 0)
(31.005227 0.0041861108 0)
(32.618824 0.0067287346 0)
(33.572078 0.007366011 0)
(33.405755 0.0070551161 0)
(31.891766 0.0060472577 0)
(29.39024 0.0048915846 0)
(26.331369 0.0037195984 0)
(23.069818 0.0027373142 0)
(19.850585 0.0019502462 0)
(16.820784 0.0013537264 0)
(14.06074 0.00091760305 0)
(11.60386 0.0006080862 0)
(9.4501594 0.00039342049 0)
(7.581875 0.00024759801 0)
(5.9733131 0.00015057647 0)
(4.5962417 8.7501389e-05 0)
(3.4226939 4.7655223e-05 0)
(2.4263785 2.3464134e-05 0)
(1.5833282 9.64823e-06 0)
(0.87211956 2.7741352e-06 0)
(0.27385302 5.2183116e-08 0)
(25.4454 -0.0019918384 0)
(25.642978 -0.0060505401 0)
(25.835399 -0.0094518807 0)
(25.940338 -0.0117527 0)
(26.07403 -0.013605571 0)
(26.318041 -0.014508206 0)
(26.791314 -0.013266129 0)
(27.725842 -0.0072700709 0)
(29.219333 -0.00015053377 0)
(30.991876 0.0041327943 0)
(32.60437 0.0067121666 0)
(33.55671 0.007348745 0)
(33.389557 0.0070446751 0)
(31.875335 0.0060372956 0)
(29.374342 0.0048834638 0)
(26.31661 0.0037123436 0)
(23.056569 0.0027309926 0)
(19.83901 0.0019448498 0)
(16.810901 0.001349261 0)
(14.052469 0.00091404307 0)
(11.597057 0.0006053383 0)
(9.4446524 0.00039136148 0)
(7.5774884 0.000246086 0)
(5.9698827 0.00014948039 0)
(4.59362 8.6717657e-05 0)
(3.4207524 4.7109997e-05 0)
(2.4250074 2.3117132e-05 0)
(1.582435 9.469292e-06 0)
(0.87162726 2.7138276e-06 0)
(0.27369791 4.2320503e-08 0)
(25.440308 -0.0020107594 0)
(25.637709 -0.0061026342 0)
(25.830095 -0.0095226235 0)
(25.934956 -0.01183124 0)
(26.068446 -0.013689639 0)
(26.311957 -0.014591453 0)
(26.784052 -0.013355767 0)
(27.716342 -0.0073517057 0)
(29.207512 -0.00021230617 0)
(30.978501 0.0040809716 0)
(32.589886 0.0066943228 0)
(33.541308 0.0073315014 0)
(33.373322 0.0070333623 0)
(31.858869 0.0060267754 0)
(29.358415 0.0048749157 0)
(26.301827 0.0037050222 0)
(23.043305 0.0027248456 0)
(19.827426 0.0019397952 0)
(16.801015 0.0013452531 0)
(14.0442 0.00091102959 0)
(11.59026 0.00060322439 0)
(9.4391531 0.00039000925 0)
(7.5731108 0.00024534261 0)
(5.9664614 0.00014918794 0)
(4.5910068 8.6722307e-05 0)
(3.4188182 4.7273601e-05 0)
(2.4236421 2.3315802e-05 0)
(1.5815459 9.616048e-06 0)
(0.87113724 2.782494e-06 0)
(0.27354352 6.209716e-08 0)
(25.435196 -0.0020282638 0)
(25.632423 -0.0061515508 0)
(25.824777 -0.0095895711 0)
(25.929562 -0.011906168 0)
(26.062852 -0.01377009 0)
(26.305868 -0.014671751 0)
(26.77679 -0.013442446 0)
(27.706842 -0.0074324453 0)
(29.195686 -0.00027156792 0)
(30.965104 0.0040335066 0)
(32.575375 0.0066758547 0)
(33.525874 0.0073142295 0)
(33.357051 0.0070211128 0)
(31.842369 0.0060153773 0)
(29.34246 0.0048653315 0)
(26.287023 0.0036967391 0)
(23.030026 0.0027177602 0)
(19.815834 0.0019337596 0)
(16.791125 0.0013401228 0)
(14.035932 0.00090668453 0)
(11.583468 0.00059956506 0)
(9.4336611 0.00038696988 0)
(7.5687419 0.00024285512 0)
(5.9630491 0.00014719463 0)
(4.588402 8.5174536e-05 0)
(3.4168913 4.6123725e-05 0)
(2.4222825 2.2543475e-05 0)
(1.5806607 9.1879057e-06 0)
(0.87064949 2.6152645e-06 0)
(0.27338985 2.5230041e-08 0)
(25.430066 -0.0020446865 0)
(25.62712 -0.0061980943 0)
(25.819446 -0.0096536093 0)
(25.924157 -0.011978237 0)
(26.057249 -0.013847698 0)
(26.299772 -0.014749457 0)
(26.769527 -0.013526304 0)
(27.697343 -0.0075123126 0)
(29.183854 -0.00032767954 0)
(30.951686 0.0039914706 0)
(32.56084 0.0066580361 0)
(33.510412 0.0072982736 0)
(33.340748 0.0070094143 0)
(31.82584 0.006004789 0)
(29.326482 0.0048566072 0)
(26.272204 0.0036895393 0)
(23.016737 0.0027120341 0)
(19.804237 0.0019293505 0)
(16.781236 0.0013368684 0)
(14.027668 0.00090441363 0)
(11.576681 0.00059811733 0)
(9.4281761 0.00038617772 0)
(7.5643804 0.00024256683 0)
(5.959644 0.00014725833 0)
(4.5858038 8.5445035e-05 0)
(3.4149699 4.6483535e-05 0)
(2.4209271 2.287009e-05 0)
(1.5797785 9.3994193e-06 0)
(0.87016342 2.7037965e-06 0)
(0.27323672 4.726699e-08 0)
(25.424919 -0.0020602455 0)
(25.621801 -0.0062428421 0)
(25.814101 -0.0097153674 0)
(25.91874 -0.012047919 0)
(26.051635 -0.013922927 0)
(26.29367 -0.014824968 0)
(26.762263 -0.013607811 0)
(27.687847 -0.0075911201 0)
(29.172016 -0.00038098896 0)
(30.93825 0.0039535857 0)
(32.546283 0.0066411124 0)
(33.494922 0.0072842085 0)
(33.324413 0.0069986277 0)
(31.809283 0.0059950076 0)
(29.310482 0.0048484104 0)
(26.257368 0.0036826735 0)
(23.003438 0.0027064838 0)
(19.792636 0.0019249747 0)
(16.771346 0.0013335064 0)
(14.019407 0.00090190207 0)
(11.569899 0.00059627489 0)
(9.422698 0.0003848437 0)
(7.5600265 0.00024159448 0)
(5.9562464 0.00014653732 0)
(4.5832124 8.4905091e-05 0)
(3.4130542 4.6075918e-05 0)
(2.4195762 2.25934e-05 0)
(1.5788994 9.2543334e-06 0)
(0.86967912 2.6569584e-06 0)
(0.27308415 4.0174744e-08 0)
(25.419755 -0.0020751077 0)
(25.616467 -0.0062862366 0)
(25.808744 -0.0097753029 0)
(25.913312 -0.012115548 0)
(26.046012 -0.013996067 0)
(26.287562 -0.014898447 0)
(26.754999 -0.01368725 0)
(27.678352 -0.0076686008 0)
(29.160173 -0.00043213765 0)
(30.924798 0.0039182369 0)
(32.531705 0.0066248686 0)
(33.479406 0.0072717219 0)
(33.308049 0.0069887832 0)
(31.792698 0.0059860859 0)
(29.294459 0.0048410996 0)
(26.242516 0.0036766911 0)
(22.990129 0.0027017667 0)
(19.78103 0.0019213804 0)
(16.761455 0.0013308754 0)
(14.011147 0.00090009185 0)
(11.563121 0.00059514065 0)
(9.4172241 0.00038423691 0)
(7.5556771 0.00024138655 0)
(5.9528532 0.00014660364 0)
(4.5806249 8.513154e-05 0)
(3.4111419 4.6374423e-05 0)
(2.4182279 2.2861864e-05 0)
(1.5780221 9.4240891e-06 0)
(0.86919586 2.724362e-06 0)
(0.27293191 5.5512555e-08 0)
(25.414577 -0.0020893878 0)
(25.611118 -0.0063285526 0)
(25.803373 -0.0098337578 0)
(25.907873 -0.012181434 0)
(26.04038 -0.014067435 0)
(26.281448 -0.014970194 0)
(26.747736 -0.013764893 0)
(27.66886 -0.0077450061 0)
(29.148326 -0.00048197622 0)
(30.911332 0.0038853767 0)
(32.517107 0.0066099155 0)
(33.463866 0.0072601855 0)
(33.291655 0.0069795436 0)
(31.776085 0.0059773485 0)
(29.278415 0.0048337069 0)
(26.227649 0.0036703971 0)
(22.97681 0.0026964703 0)
(19.769417 0.0019169667 0)
(16.751561 0.0013271782 0)
(14.002887 0.00089698352 0)
(11.556345 0.00059250919 0)
(9.4117537 0.00038202315 0)
(7.5513322 0.00023953046 0)
(5.9494649 0.00014507361 0)
(4.5780422 8.390965e-05 0)
(3.4092337 4.5430871e-05 0)
(2.4168829 2.2212362e-05 0)
(1.5771471 9.0655745e-06 0)
(0.8687139 2.5925572e-06 0)
(0.27278009 2.9235351e-08 0)
(25.409383 -0.0021031631 0)
(25.605755 -0.0063699227 0)
(25.79799 -0.0098909972 0)
(25.902423 -0.01224589 0)
(26.034739 -0.01413731 0)
(26.275329 -0.015040515 0)
(26.740474 -0.013841172 0)
(27.659372 -0.0078205624 0)
(29.136477 -0.00053045193 0)
(30.897853 0.0038550834 0)
(32.50249 0.0065966321 0)
(33.448301 0.0072497381 0)
(33.275234 0.006971434 0)
(31.759446 0.005969739 0)
(29.26235 0.0048273627 0)
(26.212767 0.0036652555 0)
(22.963481 0.002692478 0)
(19.757799 0.0019140186 0)
(16.741666 0.0013251376 0)
(13.994628 0.00089568303 0)
(11.549571 0.00059180843 0)
(9.4062859 0.00038177304 0)
(7.5469901 0.000239614 0)
(5.9460793 0.00014537416 0)
(4.5754619 8.4316415e-05 0)
(3.4073276 4.5867322e-05 0)
(2.4155395 2.257351e-05 0)
(1.5762732 9.2825905e-06 0)
(0.86823261 2.6733882e-06 0)
(0.27262848 4.5612442e-08 0)
(25.404174 -0.0021164978 0)
(25.600377 -0.0064105046 0)
(25.792596 -0.0099472412 0)
(25.896962 -0.012309184 0)
(26.029088 -0.014205987 0)
(26.269204 -0.015109631 0)
(26.733212 -0.01391602 0)
(27.649888 -0.0078950789 0)
(29.124625 -0.00057764364 0)
(30.884361 0.0038262863 0)
(32.487856 0.0065837611 0)
(33.432713 0.0072400444 0)
(33.258784 0.0069638607 0)
(31.742782 0.0059625703 0)
(29.246264 0.0048211848 0)
(26.19787 0.0036600988 0)
(22.950143 0.0026883151 0)
(19.746177 0.0019107561 0)
(16.731769 0.0013226602 0)
(13.986369 0.00089385292 0)
(11.542799 0.00059047492 0)
(9.4008221 0.00038080201 0)
(7.5426525 0.00023888583 0)
(5.9426983 0.00014480875 0)
(4.5728858 8.3869474e-05 0)
(3.405425 4.5504584e-05 0)
(2.4141988 2.2316195e-05 0)
(1.5754013 9.146855e-06 0)
(0.86775241 2.6312627e-06 0)
(0.27247722 3.9915278e-08 0)
(25.398951 -0.0021294875 0)
(25.594985 -0.00645048 0)
(25.787188 -0.010002669 0)
(25.891491 -0.012371498 0)
(26.02343 -0.01427369 0)
(26.263075 -0.015177802 0)
(26.725952 -0.013989847 0)
(27.640409 -0.0079688051 0)
(29.112772 -0.00062375607 0)
(30.870858 0.0037987434 0)
(32.473206 0.0065720646 0)
(33.417103 0.0072322868 0)
(33.242308 0.0069579347 0)
(31.726092 0.0059568953 0)
(29.230158 0.0048164396 0)
(26.182957 0.0036563207 0)
(22.936794 0.0026854255 0)
(19.734548 0.0019086299 0)
(16.721868 0.0013211764 0)
(13.97811 0.00089290043 0)
(11.536028 0.00058996048 0)
(9.3953596 0.00038062091 0)
(7.5383166 0.0002389568 0)
(5.939319 0.00014504478 0)
(4.5703114 8.4188441e-05 0)
(3.4035238 4.5850386e-05 0)
(2.4128593 2.2602287e-05 0)
(1.5745301 9.31714e-06 0)
(0.86727267 2.693207e-06 0)
(0.27232612 5.1702272e-08 0)
(25.393714 -0.0021422386 0)
(25.58958 -0.0064898977 0)
(25.781769 -0.010057422 0)
(25.88601 -0.01243308 0)
(26.017762 -0.014340587 0)
(26.25694 -0.015245251 0)
(26.718694 -0.014062647 0)
(27.630934 -0.0080418661 0)
(29.100917 -0.00066971507 0)
(30.857344 0.0037721753 0)
(32.458539 0.0065617178 0)
(33.401471 0.0072257412 0)
(33.225804 0.0069528549 0)
(31.709375 0.0059517455 0)
(29.214028 0.0048118807 0)
(26.168027 0.0036524113 0)
(22.923432 0.0026820728 0)
(19.722908 0.0019057376 0)
(16.71196 0.0013186201 0)
(13.969845 0.00089061744 0)
(11.529254 0.00058789771 0)
(9.3898959 0.00037878771 0)
(7.533981 0.00023734206 0)
(5.9359409 0.00014366126 0)
(4.5677385 8.3050825e-05 0)
(3.4016242 4.494474e-05 0)
(2.4115211 2.1967841e-05 0)
(1.5736599 8.9669665e-06 0)
(0.86679352 2.5697961e-06 0)
(0.2721752 2.9188354e-08 0)
(25.388462 -0.0021548201 0)
(25.584161 -0.0065287605 0)
(25.776337 -0.010111611 0)
(25.880518 -0.012494184 0)
(26.012085 -0.01440671 0)
(26.2508 -0.015312084 0)
(26.711436 -0.014134817 0)
(27.621465 -0.0081142202 0)
(29.089061 -0.00071460483 0)
(30.84382 0.0037471302 0)
(32.443857 0.0065520177 0)
(33.385816 0.0072192647 0)
(33.209272 0.0069480276 0)
(31.692631 0.0059471211 0)
(29.197877 0.0048080217 0)
(26.15308 0.0036494291 0)
(22.910057 0.0026799166 0)
(19.71126 0.0019042986 0)
(16.702046 0.0013177716 0)
(13.961577 0.00089021876 0)
(11.522477 0.00058784894 0)
(9.3844306 0.00037898474 0)
(7.5296443 0.00023772044 0)
(5.9325622 0.00014414597 0)
(4.5651654 8.3564346e-05 0)
(3.3997247 4.5443404e-05 0)
(2.4101831 2.2360063e-05 0)
(1.57279 9.1927355e-06 0)
(0.86631448 2.6476373e-06 0)
(0.27202432 4.230488e-08 0)
(25.383197 -0.0021672608 0)
(25.578729 -0.0065671265 0)
(25.770895 -0.010165324 0)
(25.875015 -0.012554909 0)
(26.006401 -0.014472213 0)
(26.244655 -0.015378345 0)
(26.70418 -0.014206308 0)
(27.612001 -0.0081861432 0)
(29.077206 -0.0007589873 0)
(30.830287 0.0037228445 0)
(32.429161 0.0065425178 0)
(33.370142 0.0072128545 0)
(33.192716 0.0069431117 0)
(31.675863 0.0059424489 0)
(29.181706 0.0048040299 0)
(26.138117 0.0036462357 0)
(22.896671 0.002677449 0)
(19.699604 0.0019024489 0)
(16.692127 0.0013164327 0)
(13.953305 0.0008892692 0)
(11.5157 0.00058716675 0)
(9.3789652 0.00037847694 0)
(7.5253086 0.00023730698 0)
(5.929185 0.00014378413 0)
(4.5625941 8.3241943e-05 0)
(3.3978268 4.5146187e-05 0)
(2.4088465 2.2134211e-05 0)
(1.5719209 9.0723545e-06 0)
(0.86583603 2.6124708e-06 0)
(0.27187363 3.8363724e-08 0)
(25.377918 -0.0021795805 0)
(25.573284 -0.0066050622 0)
(25.76544 -0.010218632 0)
(25.869503 -0.012615296 0)
(26.000707 -0.014537296 0)
(26.238505 -0.015444293 0)
(26.696927 -0.014277265 0)
(27.602543 -0.0082576996 0)
(29.06535 -0.00080315161 0)
(30.816746 0.0036991029 0)
(32.414451 0.006534153 0)
(33.354447 0.0072081418 0)
(33.176133 0.0069397014 0)
(31.65907 0.0059392328 0)
(29.165513 0.004801473 0)
(26.123138 0.0036443925 0)
(22.883273 0.0026762392 0)
(19.687939 0.0019017442 0)
(16.682202 0.001316126 0)
(13.945029 0.00088924973 0)
(11.508918 0.00058735968 0)
(9.3734969 0.00037880653 0)
(7.5209703 0.00023773159 0)
(5.9258057 0.00014425136 0)
(4.5600208 8.3701491e-05 0)
(3.3959274 4.5576326e-05 0)
(2.4075087 2.2464085e-05 0)
(1.5710512 9.257669e-06 0)
(0.86535716 2.6744145e-06 0)
(0.27172282 4.7679058e-08 0)
(25.372626 -0.0021918028 0)
(25.567826 -0.0066426313 0)
(25.759974 -0.010271585 0)
(25.863981 -0.012675426 0)
(25.995006 -0.014601965 0)
(26.232351 -0.015509765 0)
(26.689674 -0.014347548 0)
(27.593091 -0.0083288688 0)
(29.053495 -0.00084711629 0)
(30.803196 0.0036756476 0)
(32.399726 0.0065259513 0)
(33.338731 0.0072039406 0)
(33.159523 0.0069365959 0)
(31.64225 0.0059359156 0)
(29.149298 0.0047985144 0)
(26.10814 0.003641844 0)
(22.869859 0.0026740726 0)
(19.676261 0.0018998671 0)
(16.672266 0.0013144318 0)
(13.936744 0.00088768863 0)
(11.50213 0.00058588933 0)
(9.3680242 0.00037744884 0)
(7.5166292 0.00023648436 0)
(5.9224246 0.00014314172 0)
(4.5574467 8.2759667e-05 0)
(3.3940276 4.4797536e-05 0)
(2.4061708 2.1906469e-05 0)
(1.5701814 8.951137e-06 0)
(0.86487828 2.5725777e-06 0)
(0.27157201 3.1461787e-08 0)
(25.36732 -0.0022039422 0)
(25.562355 -0.0066798774 0)
(25.754497 -0.010324204 0)
(25.858448 -0.01273529 0)
(25.989295 -0.014666166 0)
(26.226191 -0.015574884 0)
(26.682423 -0.014417377 0)
(27.583645 -0.0083996085 0)
(29.041641 -0.000890576 0)
(30.789639 0.0036532367 0)
(32.384989 0.0065180563 0)
(33.322995 0.0071995381 0)
(33.142888 0.0069335776 0)
(31.625405 0.005932889 0)
(29.133061 0.0047960683 0)
(26.093126 0.0036400493 0)
(22.856433 0.002672934 0)
(19.664574 0.0018992714 0)
(16.662323 0.001314257 0)
(13.928454 0.00088780652 0)
(11.495338 0.00058622253 0)
(9.3625475 0.00037791445 0)
(7.5122847 0.00023704074 0)
(5.9190408 0.00014373432 0)
(4.5548704 8.3330832e-05 0)
(3.3921262 4.5325505e-05 0)
(2.4048317 2.2309472e-05 0)
(1.5693109 9.1761476e-06 0)
(0.86439902 2.6452855e-06 0)
(0.27142107 4.1358058e-08 0)
(25.362002 -0.0022160072 0)
(25.556872 -0.0067168256 0)
(25.749009 -0.010376488 0)
(25.852906 -0.012794855 0)
(25.983577 -0.014729943 0)
(26.220026 -0.015639735 0)
(26.675174 -0.01448696 0)
(27.574206 -0.0084700501 0)
(29.029788 -0.00093377302 0)
(30.776075 0.0036311757 0)
(32.370239 0.0065104321 0)
(33.307241 0.0071949468 0)
(33.126228 0.0069302256 0)
(31.608535 0.0059295842 0)
(29.116803 0.0047932559 0)
(26.078095 0.0036377624 0)
(22.842994 0.0026711837 0)
(19.652878 0.0018979792 0)
(16.652373 0.0013133279 0)
(13.920159 0.00088714454 0)
(11.488541 0.00058573812 0)
(9.3570684 0.00037753852 0)
(7.507939 0.00023670812 0)
(5.9156565 0.00014341765 0)
(4.5522941 8.3031103e-05 0)
(3.390225 4.5034703e-05 0)
(2.403493 2.2083395e-05 0)
(1.5684406 9.0554896e-06 0)
(0.86391994 2.6113741e-06 0)
(0.2712702 3.8251279e-08 0)
(25.356671 -0.0022280067 0)
(25.551377 -0.0067534914 0)
(25.74351 -0.010428432 0)
(25.847353 -0.012854179 0)
(25.977849 -0.014793394 0)
(26.213856 -0.015704194 0)
(26.667925 -0.014556016 0)
(27.564772 -0.0085404151 0)
(29.017936 -0.00097722703 0)
(30.762505 0.0036089159 0)
(32.355476 0.0065029482 0)
(33.291466 0.0071910992 0)
(33.109542 0.0069272564 0)
(31.591639 0.0059268265 0)
(29.100524 0.0047911171 0)
(26.063047 0.0036362359 0)
(22.829543 0.0026702424 0)
(19.641172 0.0018974892 0)
(16.642415 0.0013131794 0)
(13.911858 0.00088723919 0)
(11.481741 0.00058601009 0)
(9.3515858 0.00037791637 0)
(7.5035901 0.00023715922 0)
(5.9122693 0.00014389553 0)
(4.5497153 8.3490735e-05 0)
(3.3883218 4.5461311e-05 0)
(2.4021527 2.2407721e-05 0)
(1.5675694 9.2347758e-06 0)
(0.86344029 2.6684362e-06 0)
(0.27111916 4.538103e-08 0)
(25.351328 -0.0022399456 0)
(25.545869 -0.0067898688 0)
(25.737999 -0.010479997 0)
(25.84179 -0.012913255 0)
(25.972113 -0.014856648 0)
(26.20768 -0.015768531 0)
(26.660678 -0.01462481 0)
(27.555344 -0.0086103195 0)
(29.006086 -0.0010200446 0)
(30.748928 0.0035869759 0)
(32.340701 0.0064955842 0)
(33.275671 0.0071876322 0)
(33.092831 0.0069242705 0)
(31.574718 0.0059237013 0)
(29.084222 0.0047883127 0)
(26.047981 0.0036337986 0)
(22.816076 0.0026681232 0)
(19.629453 0.0018955967 0)
(16.632448 0.0013114263 0)
(13.903548 0.00088560602 0)
(11.474934 0.00058445974 0)
(9.3460984 0.00037648276 0)
(7.4992379 0.00023584125 0)
(5.9088801 0.00014272436 0)
(4.5471354 8.2498926e-05 0)
(3.3864179 4.463897e-05 0)
(2.4008121 2.181871e-05 0)
(1.5666979 8.9137909e-06 0)
(0.86296053 2.5672644e-06 0)
(0.27096808 3.1906719e-08 0)
(25.345972 -0.0022518338 0)
(25.540349 -0.006825937 0)
(25.732477 -0.010531119 0)
(25.836217 -0.012972061 0)
(25.966369 -0.01491962 0)
(26.201499 -0.015832574 0)
(26.653432 -0.014693107 0)
(27.545923 -0.008680048 0)
(28.994237 -0.0010632355 0)
(30.735345 0.0035653968 0)
(32.325913 0.0064884053 0)
(33.259857 0.007184028 0)
(33.076093 0.0069216544 0)
(31.557772 0.0059210145 0)
(29.067899 0.0047861797 0)
(26.032897 0.0036323164 0)
(22.802596 0.0026672451 0)
(19.617724 0.0018952275 0)
(16.622472 0.0013114483 0)
(13.895233 0.00088588693 0)
(11.468121 0.00058492059 0)
(9.3406064 0.00037704195 0)
(7.4948818 0.00023646826 0)
(5.9054877 0.00014337141 0)
(4.5445528 8.3110893e-05 0)
(3.3845121 4.5202264e-05 0)
(2.3994701 2.224667e-05 0)
(1.5658255 9.1485307e-06 0)
(0.86248027 2.6380756e-06 0)
(0.27081684 3.9049428e-08 0)
(25.340604 -0.0022636758 0)
(25.534817 -0.0068616719 0)
(25.726944 -0.010581747 0)
(25.830634 -0.013030581 0)
(25.960615 -0.01498236 0)
(26.195312 -0.015896559 0)
(26.646187 -0.014761341 0)
(27.536507 -0.0087495561 0)
(28.982391 -0.0011060992 0)
(30.721756 0.0035443932 0)
(32.311113 0.0064812315 0)
(33.244025 0.0071799027 0)
(33.059331 0.0069186896 0)
(31.540801 0.0059179204 0)
(29.051556 0.0047835087 0)
(26.017798 0.0036302006 0)
(22.789103 0.0026656249 0)
(19.605986 0.0018940544 0)
(16.612489 0.001310621 0)
(13.886911 0.00088531526 0)
(11.461305 0.0005845083 0)
(9.3351118 0.00037671749 0)
(7.4905243 0.00023616797 0)
(5.9020946 0.00014307119 0)
(4.5419701 8.2817362e-05 0)
(3.3826064 4.4904636e-05 0)
(2.3981283 2.2011673e-05 0)
(1.5649534 9.0251414e-06 0)
(0.86200017 2.6057216e-06 0)
(0.27066566 3.7374071e-08 0)
(25.335223 -0.0022754477 0)
(25.529273 -0.0068970653 0)
(25.7214 -0.010631889 0)
(25.82504 -0.013088773 0)
(25.954853 -0.015044919 0)
(26.189119 -0.015960502 0)
(26.638942 -0.014829355 0)
(27.527097 -0.0088188957 0)
(28.970546 -0.0011489313 0)
(30.708161 0.0035231682 0)
(32.296302 0.0064737964 0)
(33.228173 0.0071760742 0)