/*--------------------------------*- C++ -*----------------------------------*\
| =========                 |                                                 |
| \\      /  F ield         | OpenFOAM: The Open Source CFD Toolbox           |
|  \\    /   O peration     | Version:  v2012                                 |
|   \\  /    A nd           | Website:  www.openfoam.com                      |
|    \\/     M anipulation  |                                                 |
\*---------------------------------------------------------------------------*/
FoamFile
{
    version     2.0;
    format      ascii;
    class       volScalarField;
    location    "750";
    object      alphat;
}
// * * * * * * * * * * * * * * * * * * * * * * * * * * * * * * * * * * * * * //

dimensions      [1 -1 -1 0 0 0 0];


internalField   nonuniform List<scalar> 
24000
(
0.00057275482
0.0002183732
0.00016381955
0.00018355367
0.00017072387
0.0001436377
0.0001139028
8.8382523e-05
7.2906692e-05
4.9020699e-05
2.6158969e-05
1.6487395e-05
1.357016e-05
1.002653e-05
5.9664565e-06
3.5831242e-06
2.0953635e-06
1.0777762e-06
4.3879415e-07
1.5407951e-07
4.8181859e-08
1.3731085e-08
3.5863944e-09
8.472917e-10
1.7523335e-10
2.995534e-11
3.8864581e-12
4.1036459e-13
1.4320924e-13
1.545266e-13
0.00057410848
0.00021580571
0.00016259598
0.00018296314
0.00017032785
0.00014343632
0.00011379765
8.8296427e-05
7.2781768e-05
4.8929733e-05
2.610816e-05
1.645197e-05
1.3535677e-05
9.9817246e-06
5.9399068e-06
3.5665486e-06
2.0845962e-06
1.0717208e-06
4.3604675e-07
1.5304693e-07
4.7846364e-08
1.3633526e-08
3.5606631e-09
8.411885e-10
1.7396958e-10
2.9738865e-11
3.857763e-12
4.0662227e-13
1.4129766e-13
1.5240465e-13
0.00057548284
0.00021751766
0.00016260277
0.00018241792
0.00017002723
0.00014308002
0.000113443
8.7938292e-05
7.2442498e-05
4.8826289e-05
2.6049374e-05
1.6412887e-05
1.3498506e-05
9.9418583e-06
5.9145749e-06
3.5505987e-06
2.0742767e-06
1.0645881e-06
4.326778e-07
1.5174756e-07
4.7419306e-08
1.3509124e-08
3.5279244e-09
8.3344353e-10
1.7236976e-10
2.9466641e-11
3.8235344e-12
4.0418848e-13
1.414477e-13
1.5266808e-13
0.00057686959
0.00021805668
0.00016218962
0.00018187949
0.00016974452
0.00014281465
0.00011319972
8.7710314e-05
7.2208891e-05
4.8719569e-05
2.5988991e-05
1.6373992e-05
1.3462091e-05
9.8989825e-06
5.8888661e-06
3.5352524e-06
2.0648279e-06
1.0587777e-06
4.3009699e-07
1.5079549e-07
4.7114855e-08
1.3421764e-08
3.505116e-09
8.280715e-10
1.7126291e-10
2.9278302e-11
3.7994558e-12
4.0197697e-13
1.4095293e-13
1.5216298e-13
0.00057826057
0.00021853929
0.00016168642
0.0001813438
0.00016945941
0.00014255466
0.00011296704
8.7489999e-05
7.1978678e-05
4.8610275e-05
2.5926744e-05
1.6334446e-05
1.3425424e-05
9.8572365e-06
5.8635651e-06
3.5199486e-06
2.055255e-06
1.0526828e-06
4.2733901e-07
1.4976233e-07
4.6780938e-08
1.3325322e-08
3.4798423e-09
8.2210626e-10
1.7003236e-10
2.9068839e-11
3.772764e-12
3.9963983e-13
1.405421e-13
1.5176115e-13
0.00057965254
0.00021884412
0.00016113965
0.00018081089
0.00016917497
0.00014230357
0.00011274516
8.7279153e-05
7.1758682e-05
4.8499508e-05
2.5863436e-05
1.6294574e-05
1.3388705e-05
9.8154036e-06
5.8381508e-06
3.5045459e-06
2.0456265e-06
1.046581e-06
4.2458479e-07
1.487328e-07
4.6448698e-08
1.322945e-08
3.4547305e-09
8.1618103e-10
1.6881028e-10
2.8860821e-11
3.7462313e-12
3.9728477e-13
1.4009538e-13
1.5131762e-13
0.00058104297
0.00021905291
0.00016058017
0.00018028049
0.00016889151
0.00014205678
0.00011252776
8.7072054e-05
7.1542792e-05
4.8387864e-05
2.5799459e-05
1.6254487e-05
1.3351957e-05
9.7736449e-06
5.8127189e-06
3.4890994e-06
2.0359633e-06
1.0404508e-06
4.2181686e-07
1.476979e-07
4.611464e-08
1.3133034e-08
3.4294726e-09
8.1022055e-10
1.6758082e-10
2.865153e-11
3.7195312e-12
3.9491044e-13
1.396406e-13
1.5086522e-13
0.00058243023
0.00021919788
0.00016001698
0.00017975257
0.00016860886
0.00014181262
0.00011231294
8.6867298e-05
7.1328761e-05
4.8275752e-05
2.5735099e-05
1.6214292e-05
1.3315228e-05
9.7319753e-06
5.7873018e-06
3.4736447e-06
2.0262949e-06
1.0343194e-06
4.1904983e-07
1.4666373e-07
4.5780874e-08
1.3036708e-08
3.4042378e-09
8.0426534e-10
1.6635241e-10
2.8442404e-11
3.6928463e-12
3.9253172e-13
1.3917923e-13
1.5040524e-13
0.00058381321
0.00021930615
0.00015945484
0.00017922713
0.00016832693
0.00014157015
0.00011209969
8.6664071e-05
7.1117362e-05
4.8163448e-05
2.5670543e-05
1.6174058e-05
1.3278542e-05
9.6904198e-06
5.7619364e-06
3.4582093e-06
2.0166397e-06
1.0281997e-06
4.1628988e-07
1.4563263e-07
4.5448177e-08
1.2940697e-08
3.3790857e-09
7.983295e-10
1.6512794e-10
2.8233943e-11
3.666242e-12
3.90156e-13
1.3871429e-13
1.4994092e-13
0.00058519114
0.00021939395
0.0001588962
0.00017870419
0.00016804572
0.00014132895
0.00011188756
8.6461978e-05
7.0908343e-05
4.8051121e-05
2.5605916e-05
1.6133831e-05
1.324191e-05
9.6490044e-06
5.7366467e-06
3.4428103e-06
2.007009e-06
1.0221001e-06
4.1354094e-07
1.4460617e-07
4.5117072e-08
1.2845155e-08
3.3540566e-09
7.9242251e-10
1.6390939e-10
2.802648e-11
3.6397614e-12
3.8778796e-13
1.3824755e-13
1.4947422e-13
0.00058656349
0.00021947123
0.00015834243
0.00017818383
0.00016776529
0.00014108877
0.0001116763
8.6260842e-05
7.0700653e-05
4.7938882e-05
2.5541301e-05
1.609364e-05
1.3205346e-05
9.6077447e-06
5.7114434e-06
3.4274589e-06
1.9974109e-06
1.0160267e-06
4.1080595e-07
1.4358551e-07
4.478794e-08
1.2750194e-08
3.32918e-09
7.8655143e-10
1.6269821e-10
2.7820263e-11
3.6134368e-12
3.8543097e-13
1.3778016e-13
1.4900638e-13
0.00058792985
0.00021954496
0.00015779441
0.00017766607
0.0001674856
0.00014084947
0.00011146571
8.6060513e-05
7.0493795e-05
4.7826813e-05
2.5476757e-05
1.6053506e-05
1.3168861e-05
9.5666521e-06
5.6863362e-06
3.4121618e-06
1.9878497e-06
1.0099827e-06
4.0808645e-07
1.4257121e-07
4.4460956e-08
1.2655865e-08
3.3044697e-09
7.8071946e-10
1.6149503e-10
2.7615401e-11
3.5872822e-12
3.8308658e-13
1.3731272e-13
1.4853803e-13
0.00058928991
0.00021962053
0.00015725284
0.00017715105
0.00016720666
0.00014061096
0.00011125573
8.5860871e-05
7.0287551e-05
4.7714969e-05
2.541232e-05
1.601344e-05
1.3132455e-05
9.5257267e-06
5.6613344e-06
3.3969242e-06
1.9783292e-06
1.0039705e-06
4.0538374e-07
1.4156378e-07
4.413629e-08
1.2562218e-08
3.2799393e-09
7.7492988e-10
1.6030059e-10
2.7412017e-11
3.5613138e-12
3.8075684e-13
1.3684619e-13
1.4807022e-13
0.0005906434
0.0002197007
0.00015671826
0.00017663879
0.0001669284
0.00014037322
0.00011104629
8.5661857e-05
7.008194e-05
4.7603392e-05
2.5348017e-05
1.5973451e-05
1.3096128e-05
9.4849703e-06
5.6364376e-06
3.3817487e-06
1.9688509e-06
9.9799155e-07
4.0269838e-07
1.4056343e-07
4.3814021e-08
1.2469275e-08
3.255594e-09
7.6918399e-10
1.5911513e-10
2.7210154e-11
3.5355372e-12
3.7844232e-13
1.3638075e-13
1.4760318e-13
0.00059199011
0.00021978595
0.00015619114
0.00017612944
0.00016665094
0.00014013627
0.0001108374
8.5463425e-05
6.9876967e-05
4.7492111e-05
2.5283865e-05
1.5933544e-05
1.305988e-05
9.4443928e-06
5.6116476e-06
3.3666366e-06
1.9594163e-06
9.9204712e-07
4.0003086e-07
1.3957037e-07
4.349422e-08
1.2377058e-08
3.23144e-09
7.6348317e-10
1.5793894e-10
2.7009867e-11
3.5099595e-12
3.7614378e-13
1.3591671e-13
1.4713722e-13
0.00059332983
0.00021987678
0.00015567185
0.00017562305
0.00016637428
0.00013990004
0.00011062898
8.5265569e-05
6.9672636e-05
4.7381145e-05
2.5219877e-05
1.589372e-05
1.3023717e-05
9.4039856e-06
5.5869676e-06
3.3515888e-06
1.9500254e-06
9.8613706e-07
3.9738123e-07
1.3858461e-07
4.3176877e-08
1.2285564e-08
3.2074761e-09
7.5782722e-10
1.5677199e-10
2.6811148e-11
3.4845801e-12
3.7386123e-13
1.3545413e-13
1.4667243e-13
0.00059466239
0.00021997485
0.0001551608
0.00017511976
0.00016609837
0.00013966454
0.00011042101
8.5068231e-05
6.9468924e-05
4.727051e-05
2.515606e-05
1.5853982e-05
1.2987633e-05
9.3637517e-06
5.5623974e-06
3.3366064e-06
1.9406794e-06
9.8026194e-07
3.9474986e-07
1.3760627e-07
4.2862036e-08
1.2194807e-08
3.1837069e-09
7.5221729e-10
1.5561451e-10
2.6614038e-11
3.4594046e-12
3.7159555e-13
1.3499354e-13
1.4620938e-13
0.00059598765
0.00022008156
0.00015465842
0.00017461965
0.00016582325
0.00013942973
0.0001102135
8.4871404e-05
6.9265793e-05
4.7160215e-05
2.509242e-05
1.5814328e-05
1.2951625e-05
9.3236857e-06
5.5379338e-06
3.3216885e-06
1.9313776e-06
9.7442181e-07
3.9213661e-07
1.366353e-07
4.2549674e-08
1.2104779e-08
3.1601297e-09
7.466526e-10
1.5446634e-10
2.6418506e-11
3.434429e-12
3.6934626e-13
1.3453474e-13
1.4574786e-13
0.00059730549
0.00022019684
0.00015416511
0.00017412283
0.00016554888
0.00013919567
0.00011000646
8.4675101e-05
6.9063238e-05
4.7050267e-05
2.5028961e-05
1.5774759e-05
1.2915694e-05
9.2837952e-06
5.5135784e-06
3.3068352e-06
1.9221202e-06
9.6861678e-07
3.8954142e-07
1.3567168e-07
4.2239799e-08
1.2015481e-08
3.1367451e-09
7.411334e-10
1.5332755e-10
2.6224563e-11
3.4096546e-12
3.6711355e-13
1.3407781e-13
1.4528795e-13
0.0005986158
0.00022032048
0.00015368119
0.00017362944
0.00016527544
0.00013896232
0.00010979985
8.4479303e-05
6.8861248e-05
4.694067e-05
2.4965683e-05
1.5735273e-05
1.287984e-05
9.2440704e-06
5.4893323e-06
3.2920462e-06
1.9129066e-06
9.6284615e-07
3.8696406e-07
1.347153e-07
4.1932369e-08
1.1926903e-08
3.1135498e-09
7.3565892e-10
1.5219796e-10
2.6032185e-11
3.385078e-12
3.6489716e-13
1.3362272e-13
1.4482965e-13
0.00059991852
0.00022045349
0.000153207
0.00017313955
0.00016500281
0.00013872966
0.00010959365
8.4283992e-05
6.865981e-05
4.6831427e-05
2.4902588e-05
1.5695867e-05
1.2844058e-05
9.2045083e-06
5.4651908e-06
3.2773217e-06
1.9037375e-06
9.5711029e-07
3.844048e-07
1.3376628e-07
4.1627418e-08
1.1839054e-08
3.090547e-09
7.3022991e-10
1.5107775e-10
2.5841402e-11
3.3607036e-12
3.6269773e-13
1.3316988e-13
1.4437339e-13
0.0006012136
0.00022059776
0.00015274293
0.00017265333
0.00016473104
0.00013849774
0.00010938788
8.4089145e-05
6.8458893e-05
4.6722541e-05
2.4839676e-05
1.5656541e-05
1.2808343e-05
9.1651123e-06
5.4411532e-06
3.26266e-06
1.8946118e-06
9.5140881e-07
3.8186331e-07
1.3282445e-07
4.1324878e-08
1.1751915e-08
3.0677311e-09
7.2484505e-10
1.4996663e-10
2.5652163e-11
3.3365252e-12
3.6051453e-13
1.3271899e-13
1.4391888e-13
0.00060250103
0.00022075395
0.00015228943
0.00017217085
0.00016446011
0.00013826648
0.00010918253
8.3894781e-05
6.825849e-05
4.6614014e-05
2.4776946e-05
1.5617293e-05
1.2772697e-05
9.1258767e-06
5.417222e-06
3.2480612e-06
1.8855292e-06
9.4574162e-07
3.7933943e-07
1.3188978e-07
4.1024754e-08
1.1665486e-08
3.045103e-09
7.1950453e-10
1.4886464e-10
2.5464477e-11
3.3125439e-12
3.5834783e-13
1.3227024e-13
1.4346628e-13
0.00060378083
0.00022092141
0.00015184681
0.00017169228
0.00016419009
0.00013803598
0.0001089776
8.37009e-05
6.8058605e-05
4.6505846e-05
2.4714399e-05
1.5578119e-05
1.2737119e-05
9.0868022e-06
5.3933923e-06
3.2335245e-06
1.8764894e-06
9.40108e-07
3.7683289e-07
1.3096215e-07
4.0727005e-08
1.1579755e-08
3.0226586e-09
7.1420741e-10
1.477716e-10
2.5278309e-11
3.2887552e-12
3.5619715e-13
1.3182348e-13
1.4301547e-13
0.00060505304
0.00022110019
0.00015141542
0.0001712177
0.0001639211
0.00013780614
0.00010877307
8.3507484e-05
6.7859226e-05
4.6398037e-05
2.4652031e-05
1.5539018e-05
1.2701603e-05
9.0478773e-06
5.3696621e-06
3.2190493e-06
1.8674926e-06
9.3450817e-07
3.7434391e-07
1.3004164e-07
4.0431657e-08
1.1494729e-08
3.0004004e-09
7.0895435e-10
1.4668764e-10
2.5093684e-11
3.2651622e-12
3.5406304e-13
1.3137904e-13
1.4256681e-13
0.00060631774
0.00022129218
0.00015099656
0.00017074728
0.00016365303
0.00013757703
0.00010856894
8.3314524e-05
6.7660336e-05
4.6290587e-05
2.4589842e-05
1.5499986e-05
1.2666145e-05
9.009113e-06
5.3460318e-06
3.2046336e-06
1.8585369e-06
9.289414e-07
3.7187203e-07
1.2912803e-07
4.0138626e-08
1.1410386e-08
2.9783218e-09
7.0374366e-10
1.4561242e-10
2.4910545e-11
3.2417576e-12
3.519447e-13
1.3093663e-13
1.4211996e-13
0.00060757505
0.00022149918
0.0001505881
0.00017028113
0.00016338595
0.00013734862
0.00010836523
8.312202e-05
6.7461922e-05
4.6183494e-05
2.4527828e-05
1.5461022e-05
1.2630746e-05
8.9704969e-06
5.3225012e-06
3.1902774e-06
1.8496224e-06
9.2340758e-07
3.6941711e-07
1.2822133e-07
3.9847915e-08
1.1326726e-08
2.9564238e-09
6.9857575e-10
1.4454604e-10
2.4728911e-11
3.2185441e-12
3.4984248e-13
1.3049639e-13
1.4167511e-13
0.00060882513
0.00022172113
0.00015019273
0.00016981938
0.00016311985
0.00013712089
0.00010816192
8.292999e-05
6.7263984e-05
4.6076757e-05
2.4465987e-05
1.5422123e-05
1.2595405e-05
8.9320299e-06
5.2990643e-06
3.1759797e-06
1.8407484e-06
9.1790591e-07
3.669788e-07
1.2732136e-07
3.9559478e-08
1.1243735e-08
2.9347023e-09
6.9344954e-10
1.4348824e-10
2.4548738e-11
3.1955162e-12
3.477557e-13
1.3005808e-13
1.4123199e-13
0.00061006817
0.00022195737
0.00014981009
0.00016936218
0.00016285485
0.0001368939
0.00010795901
8.2738419e-05
6.7066518e-05
4.5970373e-05
2.4404318e-05
1.5383285e-05
1.2560115e-05
8.8937045e-06
5.2757214e-06
3.1617393e-06
1.8319147e-06
9.124363e-07
3.6455715e-07
1.2642815e-07
3.9273322e-08
1.1161414e-08
2.9131579e-09
6.8836522e-10
1.4243908e-10
2.4370034e-11
3.1726752e-12
3.4568472e-13
1.29622e-13
1.4079091e-13
0.00061130438
0.00022220859
0.00014944052
0.00016890964
0.00016259101
0.00013666758
0.00010775651
8.2547296e-05
6.6869509e-05
4.586434e-05
2.4342816e-05
1.5344505e-05
1.2524874e-05
8.8555268e-06
5.2524741e-06
3.1475548e-06
1.8231197e-06
9.0699783e-07
3.6215161e-07
1.2554145e-07
3.8989354e-08
1.1079736e-08
2.8917828e-09
6.8332091e-10
1.4139818e-10
2.4192733e-11
3.1500123e-12
3.4362869e-13
1.2918786e-13
1.4035158e-13
0.00061253404
0.00022247696
0.00014908437
0.00016846192
0.00016232824
0.000136442
0.00010755441
8.2356625e-05
6.6672946e-05
4.5758657e-05
2.4281481e-05
1.5305782e-05
1.248968e-05
8.8174899e-06
5.229317e-06
3.1334263e-06
1.8143635e-06
9.0159077e-07
3.5976227e-07
1.2466131e-07
3.8707591e-08
1.0998707e-08
2.8705793e-09
6.7831722e-10
1.4036567e-10
2.4016857e-11
3.1275307e-12
3.4158805e-13
1.2875589e-13
1.3991424e-13
0.00061375746
0.00022276393
0.00014874203
0.00016801913
0.00016206661
0.00013621708
0.00010735272
8.216642e-05
6.6476838e-05
4.565332e-05
2.422031e-05
1.5267114e-05
1.2454534e-05
8.7795871e-06
5.2062476e-06
3.1193525e-06
1.8056459e-06
8.9621451e-07
3.5738882e-07
1.2378762e-07
3.8427993e-08
1.0918316e-08
2.8495436e-09
6.7335318e-10
1.3934134e-10
2.3842375e-11
3.1052257e-12
3.3956223e-13
1.2832587e-13
1.3947864e-13
0.00061497498
0.00022306879
0.00014841385
0.00016758143
0.00016180615
0.00013599286
0.00010715142
8.1976676e-05
6.6281189e-05
4.554833e-05
2.4159299e-05
1.5228498e-05
1.2419431e-05
8.7418211e-06
5.1832679e-06
3.1053325e-06
1.7969663e-06
8.908688e-07
3.5503124e-07
1.2292038e-07
3.815057e-08
1.0838565e-08
2.8286772e-09
6.6842924e-10
1.3832529e-10
2.3669304e-11
3.0831002e-12
3.3755173e-13
1.2789808e-13
1.3904511e-13
0.00061618699
0.00022339074
0.00014810008
0.00016714892
0.00016154702
0.00013576941
0.00010695058
8.1787396e-05
6.6085986e-05
4.5443683e-05
2.4098448e-05
1.5189931e-05
1.2384367e-05
8.7041879e-06
5.1603765e-06
3.0913646e-06
1.7883229e-06
8.8555261e-07
3.5268895e-07
1.2205931e-07
3.7875229e-08
1.0759425e-08
2.8079722e-09
6.6354346e-10
1.373171e-10
2.3497574e-11
3.0611456e-12
3.3555566e-13
1.2747228e-13
1.3861336e-13
0.00061739391
0.00022373107
0.00014780103
0.00016672177
0.00016128924
0.00013554662
0.00010675014
8.1598587e-05
6.5891226e-05
4.5339379e-05
2.4037755e-05
1.5151412e-05
1.2349341e-05
8.6666893e-06
5.1375676e-06
3.0774488e-06
1.7797159e-06
8.8026638e-07
3.5036217e-07
1.2120451e-07
3.7601999e-08
1.0680906e-08
2.7874313e-09
6.5869657e-10
1.3631695e-10
2.3327213e-11
3.0393656e-12
3.3357454e-13
1.2704872e-13
1.3818367e-13
0.00061859622
0.00022409232
0.00014751699
0.0001663001
0.00016103274
0.00013532456
0.00010655014
8.1410267e-05
6.5696928e-05
4.5235416e-05
2.3977216e-05
1.5112939e-05
1.2314355e-05
8.6293106e-06
5.1148406e-06
3.0635834e-06
1.771145e-06
8.7500932e-07
3.4805047e-07
1.2035582e-07
3.7330818e-08
1.060299e-08
2.7670494e-09
6.5388728e-10
1.3532457e-10
2.3158173e-11
3.0177537e-12
3.3160757e-13
1.2662702e-13
1.377556e-13
0.00061979443
0.00022447598
0.00014724833
0.00016588404
0.00016077761
0.00013510315
0.00010635054
8.1222425e-05
6.5503096e-05
4.513179e-05
2.3916829e-05
1.507451e-05
1.2279403e-05
8.5920637e-06
5.0921991e-06
3.0497679e-06
1.7626092e-06
8.697809e-07
3.4575367e-07
1.1951321e-07
3.7061683e-08
1.0525678e-08
2.7468271e-09
6.491158e-10
1.3434001e-10
2.2990465e-11
2.9963116e-12
3.2965511e-13
1.2620743e-13
1.3732943e-13
0.0006209891
0.00022488159
0.00014699529
0.00016547373
0.00016052391
0.00013488248
0.00010615143
8.1035065e-05
6.5309715e-05
4.5028501e-05
2.3856593e-05
1.5036121e-05
1.224448e-05
8.5549394e-06
5.0696365e-06
3.0360005e-06
1.754107e-06
8.6458009e-07
3.4347119e-07
1.1867639e-07
3.6794496e-08
1.0448939e-08
2.7267556e-09
6.4438003e-10
1.3336283e-10
2.2824015e-11
2.9750295e-12
3.2771623e-13
1.2578971e-13
1.3690487e-13
0.00062218082
0.00022530872
0.00014675804
0.00016506929
0.00016027181
0.00013466256
0.00010595278
8.0848208e-05
6.5116794e-05
4.4925547e-05
2.3796504e-05
1.4997773e-05
1.2209589e-05
8.5179382e-06
5.0471507e-06
3.0222817e-06
1.7456391e-06
8.5940768e-07
3.412034e-07
1.1784549e-07
3.6529308e-08
1.0372786e-08
2.7068397e-09
6.3968108e-10
1.3239326e-10
2.2658865e-11
2.9539132e-12
3.2579168e-13
1.2537423e-13
1.3648233e-13
0.00062337024
0.00022575885
0.00014653685
0.00016467086
0.00016002132
0.00013444331
0.0001057546
8.0661855e-05
6.4924358e-05
4.4822925e-05
2.3736562e-05
1.4959464e-05
1.2174729e-05
8.4810482e-06
5.0247428e-06
3.0086096e-06
1.737205e-06
8.5426311e-07
3.3895002e-07
1.170204e-07
3.6266071e-08
1.0297207e-08
2.6870749e-09
6.3501792e-10
1.3143107e-10
2.2494976e-11
2.9329579e-12
3.2388083e-13
1.2496065e-13
1.3606143e-13
0.00062455802
0.00022623455
0.00014633198
0.00016427856
0.00015977233
0.00013422472
0.0001055569
8.0476011e-05
6.4732408e-05
4.4720637e-05
2.3676766e-05
1.4921195e-05
1.2139898e-05
8.444284e-06
5.0024141e-06
2.994984e-06
1.7288039e-06
8.4914572e-07
3.3671083e-07
1.1620112e-07
3.6004785e-08
1.0222203e-08
2.6674625e-09
6.3039093e-10
1.3047637e-10
2.2332367e-11
2.9121666e-12
3.2198419e-13
1.2454932e-13
1.3564249e-13
0.00062574492
0.00022673719
0.00014614379
0.00016389252
0.00015952491
0.00013400669
0.00010535971
8.0290688e-05
6.4540933e-05
4.4618681e-05
2.3617113e-05
1.4882961e-05
1.2105091e-05
8.4076355e-06
4.9801573e-06
2.9814031e-06
1.720434e-06
8.4405436e-07
3.3448516e-07
1.1538731e-07
3.5745337e-08
1.014774e-08
2.647993e-09
6.2579777e-10
1.2952868e-10
2.2170951e-11
2.8915282e-12
3.2010071e-13
1.2413994e-13
1.352252e-13
0.00062693168
0.00022726611
0.00014597246
0.00016351286
0.0001592791
0.00013378926
0.00010516304
8.0105935e-05
6.4349962e-05
4.4517055e-05
2.3557604e-05
1.4844764e-05
1.2070309e-05
8.3710993e-06
4.9579724e-06
2.9678669e-06
1.7120959e-06
8.3898973e-07
3.3227333e-07
1.145791e-07
3.5487778e-08
1.0073834e-08
2.6286703e-09
6.2123946e-10
1.2858821e-10
2.2010769e-11
2.8710476e-12
3.1823101e-13
1.2373278e-13
1.3480981e-13
0.00062811911
0.0002278207
0.00014581816
0.00016313968
0.00015903513
0.00013357241
0.00010496688
7.9921761e-05
6.4159522e-05
4.4415759e-05
2.3498235e-05
1.4806603e-05
1.2035554e-05
8.3346706e-06
4.9358624e-06
2.9543738e-06
1.703789e-06
8.3395127e-07
3.3007505e-07
1.1377633e-07
3.5232047e-08
1.0000465e-08
2.6094895e-09
6.1671474e-10
1.276547e-10
2.1851777e-11
2.8507191e-12
3.1637431e-13
1.2332742e-13
1.3439583e-13
0.00062930805
0.00022840221
0.00014568101
0.00016277314
0.00015879246
0.00013335625
0.00010477142
7.9738157e-05
6.3969609e-05
4.4314792e-05
2.3439006e-05
1.4768477e-05
1.2000823e-05
8.2983593e-06
4.9138237e-06
2.9409239e-06
1.695513e-06
8.2893843e-07
3.2789017e-07
1.1297901e-07
3.4978156e-08
9.9276371e-09
2.5904524e-09
6.1222414e-10
1.2672825e-10
2.1693997e-11
2.8305459e-12
3.1453124e-13
1.2292426e-13
1.3398369e-13
0.00063049938
0.00022901318
0.00014556122
0.00016241331
0.00015855094
0.00013314091
0.00010457663
7.9555132e-05
6.3780222e-05
4.4214154e-05
2.3379915e-05
1.4730386e-05
1.1966113e-05
8.2621603e-06
4.8918523e-06
2.9275159e-06
1.6872661e-06
8.2395015e-07
3.2571806e-07
1.1218689e-07
3.4726002e-08
9.8553197e-09
2.57155e-09
6.0776549e-10
1.2580841e-10
2.1537348e-11
2.8105183e-12
3.1270083e-13
1.2252306e-13
1.3357308e-13
0.00063169402
0.0002296551
0.00014545909
0.00016206035
0.00015831056
0.0001329263
0.00010438254
7.9372715e-05
6.3591397e-05
4.4113844e-05
2.3320962e-05
1.469233e-05
1.1931425e-05
8.2260659e-06
4.8699497e-06
2.9141493e-06
1.6790491e-06
8.1898715e-07
3.2355905e-07
1.1140007e-07
3.4475634e-08
9.7835292e-09
2.552787e-09
6.0333996e-10
1.2489544e-10
2.1381878e-11
2.7906424e-12
3.1088391e-13
1.2212421e-13
1.3316441e-13
0.00063289293
0.00023032712
0.00014537475
0.00016171433
0.00015807135
0.00013271255
0.00010418916
7.9190924e-05
6.3403162e-05
4.4013865e-05
2.3262147e-05
1.465431e-05
1.1896764e-05
8.1900792e-06
4.8481181e-06
2.9008232e-06
1.6708615e-06
8.1404904e-07
3.2141288e-07
1.1061842e-07
3.4227002e-08
9.7122502e-09
2.5341591e-09
5.9894646e-10
1.2398912e-10
2.1227544e-11
2.7709133e-12
3.0907981e-13
1.2172736e-13
1.3275722e-13
0.00063409708
0.00023102821
0.0001453083
0.0001613754
0.00015783346
0.00013249964
0.00010399655
7.9009774e-05
6.3215522e-05
4.3914218e-05
2.3203469e-05
1.4616325e-05
1.1862127e-05
8.1542036e-06
4.8263525e-06
2.8875377e-06
1.6627029e-06
8.0913529e-07
3.1927951e-07
1.0984194e-07
3.3980116e-08
9.6414856e-09
2.5156674e-09
5.945854e-10
1.2308955e-10
2.1074368e-11
2.7513333e-12
3.0728903e-13
1.2133281e-13
1.3235182e-13
0.00063530748
0.00023175914
0.00014525979
0.00016104363
0.00015759689
0.00013228759
0.00010380469
7.8829291e-05
6.3028492e-05
4.3814905e-05
2.3144929e-05
1.4578377e-05
1.1827514e-05
8.1184352e-06
4.8046508e-06
2.8742914e-06
1.6545715e-06
8.0424469e-07
3.1715817e-07
1.0907033e-07
3.3734865e-08
9.5712002e-09
2.4973025e-09
5.9025435e-10
1.221962e-10
2.0922261e-11
2.731891e-12
3.0551043e-13
1.2094025e-13
1.3194784e-13
0.00063652518
0.00023252244
0.00014522939
0.00016071912
0.00015736154
0.00013207641
0.00010361359
7.8649483e-05
6.2842101e-05
4.3715926e-05
2.3086524e-05
1.4540465e-05
1.1792925e-05
8.0827646e-06
4.7830171e-06
2.8610839e-06
1.6464681e-06
7.993779e-07
3.1504919e-07
1.0830376e-07
3.3491303e-08
9.5014121e-09
2.4790693e-09
5.8595458e-10
1.2130935e-10
2.0771271e-11
2.712593e-12
3.0374488e-13
1.2055007e-13
1.3154565e-13
0.00063775126
0.00023332011
0.00014521728
0.000160402
0.00015712745
0.00013186606
0.00010342324
7.8470353e-05
6.2656362e-05
4.3617285e-05
2.3028257e-05
1.4502589e-05
1.1758363e-05
8.0472001e-06
4.7614488e-06
2.8479149e-06
1.6383925e-06
7.9453478e-07
3.1295236e-07
1.0754209e-07
3.3249383e-08
9.4321073e-09
2.4609639e-09
5.8168522e-10
1.204288e-10
2.0621367e-11
2.6934356e-12
3.0199185e-13
1.2016195e-13
1.3114487e-13
0.00063898681
0.00023415178
0.0001452236
0.00016009231
0.00015689458
0.00013165662
0.00010323369
7.8291927e-05
6.2471288e-05
4.3518986e-05
2.2970125e-05
1.4464751e-05
1.1723827e-05
8.0117426e-06
4.7399438e-06
2.8347848e-06
1.6303445e-06
7.8971504e-07
3.1086777e-07
1.0678534e-07
3.3009122e-08
9.3632924e-09
2.4429882e-09
5.7744673e-10
1.1955467e-10
2.0472568e-11
2.6744217e-12
3.0025181e-13
1.1977623e-13
1.3074581e-13
0.00064023294
0.00023501614
0.00014524842
0.0001597902
0.00015666308
0.00013144805
0.00010304492
7.811423e-05
6.2286904e-05
4.3421031e-05
2.2912131e-05
1.442695e-05
1.1689317e-05
7.9763895e-06
4.7185016e-06
2.8216921e-06
1.6223222e-06
7.8491744e-07
3.0879472e-07
1.0603322e-07
3.2770417e-08
9.2949339e-09
2.4251328e-09
5.7323677e-10
1.1868648e-10
2.0324788e-11
2.6555403e-12
2.9852378e-13
1.1939265e-13
1.3034818e-13
0.0006414908
0.00023591308
0.00014529171
0.00015949569
0.00015643297
0.00013124041
0.00010285697
7.793727e-05
6.2103231e-05
4.3323427e-05
2.2854275e-05
1.4389187e-05
1.1654833e-05
7.9411339e-06
4.6971272e-06
2.8086365e-06
1.6143268e-06
7.801426e-07
3.0673346e-07
1.052859e-07
3.2533317e-08
9.2270471e-09
2.4074025e-09
5.6905658e-10
1.1782449e-10
2.0178076e-11
2.636798e-12
2.9680862e-13
1.1901165e-13
1.2995238e-13
0.00064276155
0.00023684437
0.00014535359
0.00015920891
0.0001562042
0.0001310337
0.00010266984
7.7761065e-05
6.1920284e-05
4.3226176e-05
2.2796557e-05
1.4351463e-05
1.1620378e-05
7.9059857e-06
4.6758147e-06
2.7956183e-06
1.606358e-06
7.7539043e-07
3.046838e-07
1.0454326e-07
3.2297786e-08
9.1596203e-09
2.3897938e-09
5.6490524e-10
1.169685e-10
2.0032399e-11
2.6181901e-12
2.9510566e-13
1.1863281e-13
1.295579e-13
0.00064404636
0.00023781242
0.00014543413
0.00015892992
0.00015597675
0.00013082787
0.00010248351
7.7585637e-05
6.1738082e-05
4.3129286e-05
2.2738977e-05
1.4313778e-05
1.1585953e-05
7.8709447e-06
4.6545647e-06
2.7826382e-06
1.5984158e-06
7.7066089e-07
3.0264582e-07
1.0380533e-07
3.2063833e-08
9.0926585e-09
2.3723083e-09
5.607832e-10
1.1611861e-10
1.9887774e-11
2.5997189e-12
2.9341532e-13
1.182564e-13
1.29165e-13
0.00064534643
0.00023881797
0.00014553348
0.00015865878
0.00015575053
0.00013062299
0.00010229801
7.7410994e-05
6.1556646e-05
4.3032761e-05
2.2681536e-05
1.4276131e-05
1.1551557e-05
7.8360076e-06
4.6333788e-06
2.7696943e-06
1.5904986e-06
7.6595262e-07
3.0061891e-07
1.030718e-07
3.1831352e-08
9.0261284e-09
2.3549368e-09
5.5668826e-10
1.1527433e-10
1.974412e-11
2.5813745e-12
2.917367e-13
1.1788223e-13
1.2877344e-13
0.00064666297
0.00023985969
0.00014565163
0.00015839559
0.00015552571
0.00013041903
0.00010211336
7.7237152e-05
6.137599e-05
4.2936611e-05
2.2624235e-05
1.4238524e-05
1.151719e-05
7.8011712e-06
4.6122598e-06
2.7567873e-06
1.5826075e-06
7.6126636e-07
2.986034e-07
1.0234286e-07
3.160041e-08
8.9600513e-09
2.3376849e-09
5.5262177e-10
1.1443598e-10
1.9601492e-11
2.5631644e-12
2.9007074e-13
1.1751073e-13
1.2838363e-13
0.00064799719
0.00024093631
0.00014578857
0.00015814035
0.00015530232
0.00013021603
0.00010192958
7.7064144e-05
6.1196137e-05
4.2840843e-05
2.2567073e-05
1.4200955e-05
1.1482856e-05
7.7664446e-06
4.5912021e-06
2.7439174e-06
1.5747427e-06
7.5660216e-07
2.9659913e-07
1.0161844e-07
3.1370978e-08
8.8944163e-09
2.3205497e-09
5.4858302e-10
1.1360342e-10
1.9459858e-11
2.5450847e-12
2.8841684e-13
1.1714155e-13
1.2799516e-13
0.0006493503
0.00024204844
0.00014594434
0.00015789322
0.00015508035
0.00013001402
0.00010174665
7.6891983e-05
6.1017113e-05
4.2745466e-05
2.2510054e-05
1.4163424e-05
1.1448556e-05
7.7318283e-06
4.5702081e-06
2.7310859e-06
1.5669041e-06
7.5196022e-07
2.9460614e-07
1.0089857e-07
3.1143064e-08
8.8292264e-09
2.3035323e-09
5.4457228e-10
1.127767e-10
1.9319233e-11
2.5271371e-12
2.8677533e-13
1.1677491e-13
1.2760823e-13
0.00065072353
0.00024319822
0.00014611893
0.00015765416
0.00015485979
0.00012981293
0.00010156456
7.672066e-05
6.0838923e-05
4.2650492e-05
2.2453176e-05
1.4125929e-05
1.1414289e-05
7.697318e-06
4.5492815e-06
2.7182906e-06
1.5590902e-06
7.4733909e-07
2.9262387e-07
1.0018296e-07
3.0916566e-08
8.76445e-09
2.2866239e-09
5.4058735e-10
1.1195535e-10
1.9179536e-11
2.5093111e-12
2.8514531e-13
1.1641061e-13
1.2722257e-13
0.00065211811
0.00024438756
0.00014631252
0.00015742328
0.00015464046
0.00012961281
0.00010138334
7.6550191e-05
6.0661573e-05
4.2555932e-05
2.239644e-05
1.4088469e-05
1.1380055e-05
7.6629146e-06
4.528421e-06
2.7055328e-06
1.5513024e-06
7.4273954e-07
2.9065276e-07
9.9471775e-08
3.0691548e-08
8.7001085e-09
2.2698307e-09
5.3662977e-10
1.1113969e-10
1.9040825e-11
2.4916143e-12
2.835277e-13
1.160491e-13
1.2683863e-13
0.00065353528
0.00024561598
0.00014652511
0.00015720062
0.00015442256
0.00012941363
0.00010120297
7.6380599e-05
6.0485088e-05
4.2461798e-05
2.2339849e-05
1.4051041e-05
1.1345857e-05
7.6286258e-06
4.5076236e-06
2.6928129e-06
1.543541e-06
7.3816174e-07
2.8869266e-07
9.8764981e-08
3.0467991e-08
8.6361946e-09
2.25315e-09
5.3269897e-10
1.1032958e-10
1.8903077e-11
2.4740433e-12
2.819219e-13
1.1568995e-13
1.2645592e-13
0.00065497624
0.00024688165
0.00014675669
0.00015698618
0.00015420603
0.00012921543
0.00010102346
7.6211901e-05
6.0309492e-05
4.2368106e-05
2.2283405e-05
1.4013643e-05
1.1311698e-05
7.5944523e-06
4.4868931e-06
2.6801325e-06
1.5358061e-06
7.3360596e-07
2.867436e-07
9.8062615e-08
3.0245909e-08
8.5727125e-09
2.2365831e-09
5.287952e-10
1.0952511e-10
1.8766303e-11
2.4566005e-12
2.8032827e-13
1.1533338e-13
1.2607465e-13
0.00065644221
0.00024818368
0.00014700721
0.00015678009
0.00015399099
0.00012901824
0.00010084485
7.6044105e-05
6.0134784e-05
4.2274873e-05
2.2227109e-05
1.397627e-05
1.1277577e-05
7.5603902e-06
4.4662339e-06
2.6674893e-06
1.5280963e-06
7.2907098e-07
2.8480499e-07
9.7364396e-08
3.0025196e-08
8.5096295e-09
2.2201213e-09
5.2491634e-10
1.0872582e-10
1.8630424e-11
2.4392757e-12
2.7874592e-13
1.1497922e-13
1.2569461e-13
0.0006579344
0.00024952288
0.00014727667
0.00015658229
0.00015377733
0.00012882208
0.00010066715
7.5877223e-05
5.9960968e-05
4.2182115e-05
2.2170963e-05
1.3938917e-05
1.1243494e-05
7.5264434e-06
4.4456419e-06
2.6548851e-06
1.5204131e-06
7.2455758e-07
2.8287743e-07
9.6670548e-08
2.9805937e-08
8.4469703e-09
2.2037713e-09
5.2106405e-10
1.0793208e-10
1.8495501e-11
2.422077e-12
2.7717583e-13
1.1462795e-13
1.2531629e-13
0.000659454
0.00025090144
0.00014756522
0.00015639291
0.00015356452
0.00012862711
0.0001004905
7.5711265e-05
5.9788069e-05
4.2089854e-05
2.2114972e-05
1.3901578e-05
1.1209451e-05
7.4926178e-06
4.4251159e-06
2.6423205e-06
1.5127569e-06
7.200659e-07
2.8096085e-07
9.5981006e-08
2.9588105e-08
8.3847278e-09
2.1875309e-09
5.1723768e-10
1.0714373e-10
1.836151e-11
2.4050006e-12
2.7561737e-13
1.1427912e-13
1.249392e-13
0.00066100219
0.00025232057
0.00014787284
0.00015621191
0.00015335274
0.00012843334
0.00010031491
7.5546231e-05
5.9616093e-05
4.1998111e-05
2.2059141e-05
1.3864244e-05
1.1175453e-05
7.4589147e-06
4.4046615e-06
2.6297968e-06
1.5051279e-06
7.1559612e-07
2.7905517e-07
9.5295792e-08
2.9371709e-08
8.3229055e-09
2.1714016e-09
5.134376e-10
1.0636085e-10
1.8228465e-11
2.3880483e-12
2.740708e-13
1.1393291e-13
1.2456347e-13
0.00066258016
0.00025377902
0.00014819968
0.00015603933
0.00015314185
0.00012824076
0.00010014042
7.5382145e-05
5.9445044e-05
4.190691e-05
2.2003475e-05
1.3826904e-05
1.1141501e-05
7.425331e-06
4.3842818e-06
2.617312e-06
1.4975247e-06
7.1114743e-07
2.7715983e-07
9.4614659e-08
2.9156657e-08
8.2614736e-09
2.1553745e-09
5.0966182e-10
1.0558299e-10
1.8096292e-11