/*--------------------------------*- C++ -*----------------------------------*\
| =========                 |                                                 |
| \\      /  F ield         | OpenFOAM: The Open Source CFD Toolbox           |
|  \\    /   O peration     | Version:  v2012                                 |
|   \\  /    A nd           | Website:  www.openfoam.com                      |
|    \\/     M anipulation  |                                                 |
\*---------------------------------------------------------------------------*/
FoamFile
{
    version     2.0;
    format      ascii;
    class       volScalarField;
    location    "750";
    object      k;
}
// * * * * * * * * * * * * * * * * * * * * * * * * * * * * * * * * * * * * * //

dimensions      [0 2 -2 0 0 0 0];


internalField   nonuniform List<scalar> 
24000
(
0.107604
0.14058367
0.27769108
0.69837146
1.4559215
2.3215793
2.9289482
3.0183831
2.6485998
2.102574
1.9139714
2.6171552
3.9376542
5.0083334
5.1745287
4.554581
3.453483
2.2522185
1.2751238
0.65519438
0.31596127
0.14514377
0.063482703
0.02612701
0.0098916094
0.0033202137
0.00094116655
0.00025851113
0.00032016274
0.0022580373
0.10745622
0.14016641
0.27587901
0.6931308
1.4469599
2.3103099
2.9180226
3.0097871
2.6423666
2.0976889
1.9091804
2.6103268
3.9274912
4.9939985
5.1580485
4.5378126
3.4386774
2.2411334
1.2681722
0.6513871
0.31405607
0.14425045
0.063087755
0.025963596
0.0098295686
0.0032993073
0.00093508384
0.00025638911
0.00031617756
0.0022290529
0.10731311
0.13975844
0.27412618
0.68820578
1.4388176
2.3004507
2.908775
3.0024473
2.6365059
2.0927659
1.9044054
2.6040378
3.9179433
4.9796509
5.1402705
4.5187829
3.4211653
2.2272482
1.2592214
0.64643518
0.31157458
0.14308811
0.062574298
0.025751217
0.0097490036
0.0032723361
0.00092768936
0.00025510006
0.00031681606
0.0022350306
0.10717029
0.13935269
0.27239255
0.6833456
1.4307121
2.2906396
2.8994628
2.9948976
2.6304355
2.087674
1.8996095
2.5979466
3.908656
4.9652928
5.1225948
4.5004511
3.4052028
2.2155144
1.2521539
0.64272675
0.30978467
0.14227065
0.062219089
0.025605819
0.0096941882
0.0032540175
0.00092257777
0.00025390382
0.00031595462
0.0022293682
0.10702832
0.13894952
0.27067208
0.67851995
1.4226369
2.2808738
2.8901718
2.9873256
2.62432
2.0825277
1.8948008
2.5919989
3.8996069
4.951171
5.1050233
4.4820514
3.3889738
2.2033521
1.2446825
0.63873642
0.30783166
0.14136971
0.061824969
0.0254438
0.0096329508
0.0032335309
0.00091688045
0.00025264179
0.00031529923
0.0022253453
0.10688747
0.13854983
0.26896577
0.6737271
1.4145916
2.2711423
2.8808991
2.9797433
2.618175
2.0773436
1.8899875
2.5861539
3.8907438
4.9372253
5.0875564
4.4636871
3.3727456
2.1911928
1.2372214
0.63475726
0.30588675
0.1404735
0.061433241
0.02528286
0.0095721447
0.0032131915
0.0009112185
0.00025136808
0.00031456441
0.0022207195
0.10674798
0.138154
0.26727356
0.66896427
1.406575
2.2614416
2.8716491
2.9721657
2.6120204
2.0721421
1.8851773
2.5803846
3.8820182
4.9234159
5.0701722
4.445347
3.3565004
2.1789995
1.2297299
0.63075808
0.30393063
0.13957166
0.061038922
0.025120821
0.0095109152
0.0031927087
0.00090551553
0.00025008257
0.00031381342
0.0022159785
0.10661001
0.13776224
0.26559552
0.66423028
1.3985868
2.2517691
2.8624219
2.9645987
2.605866
2.0669342
1.8803731
2.5746697
3.8733905
4.9097051
5.0528557
4.4270442
3.3402725
2.1668145
1.2222425
0.62676055
0.30197506
0.13866998
0.060644642
0.02495879
0.0094496864
0.0031722252
0.00089981114
0.00024879339
0.00031304803
0.0022111296
0.10647372
0.13737472
0.26393168
0.65952446
1.3906268
2.2421229
2.8532174
2.9570454
2.5997172
2.0617278
1.8755768
2.5689947
3.8648326
4.8960673
5.0355977
4.4087868
3.3240805
2.1546581
1.2147739
0.62277323
0.30002439
0.1377705
0.060251302
0.024797138
0.0093885991
0.0031517882
0.00089411883
0.00024750453
0.00031227416
0.0022062148
0.10633922
0.13699153
0.2622821
0.65484639
1.3826948
2.2325016
2.8440349
2.949508
2.5935785
2.0565277
1.8707897
2.5633493
3.8563251
4.8824842
5.0183917
4.39058
3.3079364
2.1425433
1.2073339
0.61880186
0.29808157
0.13687462
0.059859514
0.024636119
0.0093277489
0.0031314298
0.00088844765
0.00024621858
0.00031149527
0.002201259
0.10620661
0.13661279
0.2606468
0.6501959
1.3747908
2.2229044
2.8348742
2.9419878
2.587453
2.0513368
1.8660124
2.5577269
3.8478547
4.8689442
5.0012328
4.3724271
3.2918486
2.1304798
1.1999294
0.61485058
0.29614875
0.13598334
0.059469733
0.02447592
0.009267207
0.0031111738
0.00088280438
0.00024493736
0.00031071347
0.0021962771
0.106076
0.13623858
0.25902585
0.64557293
1.366915
2.2133304
2.8257348
2.9344857
2.5813429
2.0461572
1.8612453
2.5521224
3.8394129
4.8554397
4.9841178
4.3543298
3.2758218
2.1184725
1.192564
0.61092141
0.29422695
0.13509714
0.059082164
0.024316623
0.0092070044
0.0030910308
0.00087719199
0.00024366172
0.00030992994
0.0021912775
0.1059475
0.13586901
0.25741934
0.64097752
1.3590673
2.2037792
2.8166164
2.9270022
2.5752492
2.0409904
1.8564885
2.5465323
3.830993
4.8419646
4.9670448
4.3362895
3.2598592
2.1065251
1.1852407
0.60701609
0.29231709
0.13421649
0.058697019
0.024158322
0.0091471768
0.0030710129
0.00087161401
0.00024239281
0.00030914664
0.0021862742
0.10582121
0.13550418
0.25582739
0.63640974
1.351248
2.1942505
2.8075189
2.9195375
2.5691725
2.0358375
1.8517422
2.540954
3.8225904
4.8285141
4.9500116
4.3183065
3.2439628
2.0946397
1.1779609
0.60313552
0.2904196
0.13334157
0.058314381
0.024001048
0.0090877365
0.003051124
0.00086607158
0.00024113095
0.00030836397
0.00218127
0.10569723
0.13514418
0.25425014
0.63186974
1.3434572
2.1847438
2.7984418
2.9120917
2.5631134
2.0306992
1.8470063
2.5353856
3.8142015
4.8150856
4.9330161
4.3003808
3.2281337
2.0828181
1.1707258
0.59928044
0.28853489
0.1324726
0.057934342
0.023844841
0.0090286984
0.0030313692
0.00086056615
0.00023987652
0.00030758244
0.0021762686
0.10557568
0.13478912
0.25268771
0.62735768
1.3356952
2.1752592
2.789385
2.9046651
2.5570721
2.0255759
1.8422806
2.5298254
3.8058238
4.8016769
4.9160577
4.2825123
3.2123722
2.0710604
1.1635355
0.5954508
0.28666294
0.13160953
0.05755689
0.023689696
0.008970061
0.0030117482
0.00085509758
0.00023862955
0.00030680216
0.0021712707
0.10545665
0.13443912
0.25114025
0.62287378
1.3279621
2.1657963
2.7803483
2.8972574
2.5510488
2.0204679
1.8375648
2.5242719
3.7974551
4.7882853
4.8991353
4.2647007
3.1966786
2.0593671
1.1563907
0.59164708
0.28480402
0.13075254
0.0571821
0.023535645
0.008911837
0.0029922653
0.00084966726
0.00023739057
0.00030602422
0.0021662844
0.10534027
0.13409428
0.24960794
0.61841828
1.3202582
2.1563553
2.7713314
2.8898687
2.5450437
2.0153756
1.8328589
2.5187241
3.7890933
4.774909
4.8822468
4.2469453
3.1810527
2.0477382
1.1492912
0.58786908
0.28295799
0.12990154
0.056809932
0.023382669
0.0088540186
0.002972918
0.00084427438
0.00023615932
0.00030524819
0.0021613066
0.10522665
0.13375472
0.24809097
0.6139914
1.3125836
2.1469358
2.7623342
2.8824987
2.5390569
2.0102988
1.8281626
2.513181
3.7807369
4.7615471
4.8653916
4.2292454
3.1654942
2.0361736
1.1422368
0.58411684
0.28112489
0.12905655
0.056440399
0.023230778
0.0087966093
0.0029537072
0.00083891931
0.00023493591
0.00030447429
0.0021563388
0.1051159
0.13342057
0.24658951
0.60959344
1.3049388
2.137538
2.7533564
2.8751475
2.5330882
2.0052377
1.8234755
2.5076415
3.7723847
4.7481983
4.8485695
4.2116007
3.1500024
2.0246725
1.1352271
0.58038997
0.27930451
0.12821748
0.056073458
0.02307995
0.0087396017
0.0029346306
0.00083360133
0.0002337202
0.00030370249
0.0021513808
0.10500816
0.13309194
0.24510375
0.60522467
1.2973239
2.1281618
2.7443979
2.8678149
2.5271377
2.0001922
1.8187974
2.5021048
3.7640355
4.7348606
4.8317788
4.1940105
3.1345775
2.0132353
1.1282624
0.5766888
0.27749707
0.12738443
0.055709163
0.022930212
0.0086830058
0.0029156916
0.00082832148
0.00023251258
0.00030293362
0.002146439
0.10490354
0.13276895
0.24363387
0.60088542
1.2897391
2.1188072
2.7354584
2.8605005
2.5212052
1.9951621
1.8141279
2.4965701
3.7556878
4.7215333
4.8150183
4.1764739
3.1192185
2.0018612
1.1213419
0.57301277
0.27570223
0.12655723
0.055347429
0.022781526
0.0086268074
0.0028968854
0.00082307838
0.00023131265
0.00030216706
0.0021415086
0.10480216
0.13245175
0.24218011
0.59657597
1.2821849
2.1094742
2.7265377
2.8532041
2.5152905
1.9901474
1.8094668
2.4910367
3.7473406
4.7082155
4.7982879
4.1589904
3.1039249
1.9905496
1.1144655
0.5693618
0.27391998
0.12573591
0.05498827
0.022633899
0.0085710094
0.0028782132
0.00081787243
0.00023012058
0.00030140314
0.002136592
0.10470417
0.13214045
0.24074267
0.59229664
1.2746614
2.1001627
2.7176355
2.8459255
2.5093934
1.9851479
1.8048137
2.4855038
3.7389931
4.6949062
4.7815868
4.1415593
3.0886959
1.9792999
1.1076325
0.56573552
0.27215012
0.12492034
0.054631638
0.02248731
0.0085156036
0.0028596721
0.00081270279
0.00022893613
0.0003006416
0.0021316879
0.10460968
0.1318352
0.23932173
0.58804775
1.267169
2.090873
2.7087517
2.8386645
2.5035138
1.9801635
1.8001683
2.4799706
3.7306444
4.6816038
4.7649131
4.1241797
3.0735314
1.9681121
1.1008432
0.56213418
0.27039281
0.12411063
0.054277578
0.022341781
0.0084605979
0.0028412648
0.00080757029
0.00022775964
0.00029988324
0.0021268016
0.10451884
0.13153612
0.23791751
0.58382964
1.2597079
2.0816048
2.6998861
2.8314206
2.4976512
1.975194
1.7955302
2.4744367
3.7222934
4.6683082
4.7482666
4.1068506
3.05843
1.9569849
1.0940964
0.55855699
0.26864761
0.12330655
0.053925985
0.022197265
0.0084059757
0.0028229858
0.00080247335
0.00022659067
0.00029912741
0.0021219287
0.10443177
0.13124336
0.23653023
0.57964266
1.2522785
2.0723583
2.6910383
2.8241935
2.4918056
1.9702391
1.7908993
2.4689013
3.7139389
4.6550182
4.7316468
4.0895713
3.043391
1.9459179
1.087392
0.5550039
0.26691453
0.12250813
0.053576881
0.022053777
0.0083517425
0.002804837
0.00079741257
0.00022542941
0.00029837444
0.0021170714
0.10434862
0.13095704
0.23516011
0.57548708
1.2448811
2.0631336
2.6822082
2.816983
2.4859766
1.9652987
1.786275
2.4633639
3.7055807
4.6417326
4.7150521
4.0723407
3.0284135
1.9349101
1.0807292
0.55147451
0.26519336
0.12171525
0.053230207
0.021911288
0.008297887
0.0027868145
0.0007923868
0.00022427551
0.0002976238
0.002112226
0.10426952
0.13067731
0.23380734
0.57136329
1.2375159
2.0539306
2.6733955
2.8097887
2.4801638
1.9603724
1.781657
2.4578238
3.6972181
4.6284506
4.6984811
4.0551581
3.0134969
1.9239612
1.0741079
0.54796882
0.26348411
0.12092794
0.05288598
0.021769806
0.008244413
0.0027689198
0.0007873965
0.0002231292
0.00029687608
0.0021073968
0.10419463
0.13040432
0.23247212
0.5672716
1.2301834
2.0447494
2.6646
2.8026101
2.4743671
1.95546
1.7770451
2.4522805
3.6888498
4.6151717
4.6819342
4.0380222
2.9986397
1.9130695
1.0675268
0.54448592
0.26178629
0.12014594
0.052544081
0.021629283
0.008191301
0.0027511464
0.00078243985
0.00022199002
0.00029613073
0.00210258
0.10412407
0.13013819
0.23115465
0.56321236
1.2228838
2.0355901
2.6558214
2.795447
2.4685859
1.9505613
1.772439
2.4467335
3.6804749
4.6018949
4.6654102
4.0209325
2.9838415
1.902235
1.0609859
0.54102595
0.26010001
0.11936932
0.05220455
0.021489735
0.0081385586
0.0027334967
0.00077751762
0.00022085824
0.0002953883
0.0020977796
0.10405799
0.12987908
0.22985516
0.5591859
1.2156175
2.0264527
2.6470597
2.7882989
2.46282
1.945676
1.7678383
2.4411823
3.6720933
4.5886189
4.6489072
4.003888
2.9691016
1.8914571
1.0544849
0.5375886
0.25842508
0.11859798
0.051867337
0.021351142
0.008086177
0.0027159677
0.00077262886
0.00021973354
0.00029464831
0.002092992
0.10399655
0.12962712
0.22857384
0.55519249
1.2083848
2.0173372
2.6383144
2.7811655
2.4570689
1.9408037
1.7632427
2.4356264
3.6637042
4.5753433
4.632425
3.9868879
2.9544193
1.8807352
1.0480234
0.53417384
0.25676153
0.11783197
0.051532467
0.021213515
0.0080341618
0.0026985615
0.00076777424
0.00021861622
0.00029391141
0.0020882219
0.1039399
0.12938246
0.22731087
0.55123248
1.201186
2.0082438
2.6295855
2.7740463
2.4513323
1.9359443
1.758652
2.4300653
3.6553066
4.5620674
4.6159634
3.969931
2.939793
1.8700676
1.0416001
0.53078074
0.25510885
0.11707102
0.051199816
0.021076802
0.0079824925
0.0026812712
0.00076295184
0.00021750579
0.00029317706
0.0020834655
0.10388817
0.12914524
0.22606643
0.54730616
1.1940215
1.9991725
2.6208727
2.7669408
2.4456097
1.9310974
1.7540659
2.4244986
3.6468998
4.5487904
4.5995208
3.9530166
2.9252223
1.8594545
1.0352152
0.52740955
0.2534672
0.11631521
0.050869433
0.020941025
0.007931178
0.0026641001
0.00075816264
0.00021640257
0.00029244573
0.002078726
0.10384153
0.12891561
0.22484071
0.54341383
1.1868916
1.9901234
2.6121758
2.7598489
2.4399009
1.9262627
1.7494841
2.418926
3.6384838
4.5355112
4.5830957
3.9361436
2.9107063
1.848895
1.028868
0.52405976
0.25183629
0.11556441
0.050541245
0.020806152
0.0078802056
0.0026470435
0.0007534053
0.0002153061
0.00029171661
0.0020739976
0.10380012
0.1286937
0.2236339
0.53955576
1.1797967
1.9810965
2.6034947
2.7527701
2.4342054
1.9214401
1.7449065
2.4133472
3.6300579
4.5222295
4.5666884
3.9193112
2.8962441
1.838388
1.022558
0.52073121
0.25021609
0.11481862
0.050215265
0.02067219
0.0078295791
0.0026301031
0.00074868033
0.00021421664
0.00029099031
0.0020692847
0.10376409
0.12847967
0.22244619
0.5357322
1.1727372
1.972092
2.5948292
2.7457039
2.4285229
1.9166291
1.7403328
2.4077619
3.6216213
4.5089448
4.5502982
3.9025182
2.8818338
1.8279319
1.0162838
0.51742295
0.24860606
0.11407755
0.04989136
0.020539084
0.0077792764
0.0026132712
0.00074398557
0.00021313364
0.00029026636
0.0020645839
0.10373361
0.12827365
0.2212777
0.53194342
1.1657133
1.9631099
2.5861792
2.73865
2.4228529
1.9118295
1.7357628
2.4021698
3.6131736
4.4956561
4.5339232
3.885764
2.8674757
1.8175272
1.0100459
0.51413542
0.24700646
0.11334136
0.0495696
0.020406863
0.0077293096
0.002596552
0.00073932224
0.00021205752
0.00028954552
0.0020599007
0.10370883
0.1280758
0.22012859
0.52818965
1.1587255
1.9541504
2.5775445
2.7316082
2.417195
1.907041
1.7311963
2.3965708
3.6047149
4.4823625
4.517563
3.8690479
2.8531692
1.8071734
1.0038438
0.51086818
0.24541705
0.11260991
0.049249923
0.0202755
0.0076796681
0.0025799421
0.00073468934
0.00021098794
0.00028882706
0.0020552294
0.10368989
0.12788625
0.21899901
0.52447115
1.1517741
1.9452135
2.5689252
2.7245779
2.411549
1.9022634
1.7266332
2.3909647
3.5962447
4.4690643
4.5012179
3.8523691
2.8389131
1.7968694
0.99767694
0.50762113
0.24383783
0.11188324
0.048932355
0.020145009
0.0076303583
0.0025634438
0.00073008768
0.00020992523
0.00028811166
0.0020505749
0.10367696
0.12770515
0.21788913
0.52078808
1.1448596
1.9362993
2.560321
2.7175588
2.4059144
1.8974965
1.7220734
2.3853514
3.5877626
4.4557612
4.4848866
3.8357261
2.8247055
1.7866133
0.99154386
0.50439321
0.2422682
0.11116103
0.048616746
0.020015327
0.0075813547
0.0025470485
0.00072551479
0.00020886877
0.00028739866
0.0020459324
0.10367019
0.12753263
0.21679908
0.51714063
1.1379823
1.9274079
2.551732
2.7105507
2.4002908
1.8927401
1.7175168
2.379731
3.5792683
4.4424521
4.4685677
3.8191188
2.8105466
1.7764056
0.98544505
0.50118485
0.24070841
0.11044342
0.048303164
0.019886482
0.0075326692
0.0025307602
0.00072097191
0.00020781894
0.00028668866
0.0020413061
0.10366973
0.12736885
0.21572896
0.51352895
1.1311425
1.9185392
2.543158
2.7035533
2.3946779
1.8879938
1.7129633
2.3741034
3.5707623
4.4291366
4.4522617
3.8025463
2.7964357
1.7662455
0.97937973
0.49799549
0.23915816
0.10973025
0.047991533
0.019758442
0.0074842896
0.0025145747
0.00071645775
0.00020677528
0.00028598078
0.0020366895
0.10367574
0.12721394
0.21467888
0.5099532
1.1243391
1.9096958
2.534599
2.6965663
2.3890755
1.8832576
1.7084129
2.3684686
3.5622442
4.4158149
4.4359683
3.7860079
2.782372
1.7561323
0.97334761
0.49482507
0.23761747
0.10902157
0.047681883
0.019631223
0.0074362221
0.0024984943
0.00071197307
0.00020573816
0.0002852759
0.0020320885
0.10368838
0.12706803
0.21364894
0.50641356
1.1175715
1.9008791
2.5260552
2.6895894
2.3834832
1.8785311
1.7038655
2.3628268
3.553714
4.4024874
4.4196862
3.7695026
2.7683536
1.7460641
0.96734727
0.49167267
0.23608581
0.10831708
0.047374074
0.019504763
0.0073884429
0.002482511
0.00070751562
0.00020470702
0.00028457346
0.0020274992
0.10370779
0.12693126
0.21263928
0.50291017
1.1108399
1.8920891
2.5175265
2.6826226
2.3779006
1.8738143
1.699321
2.3571782
3.5451719
4.389153
4.403415
3.7530302
2.7543811
1.7360416
0.96137931
0.48853874
0.23456344
0.10761694
0.047068184
0.019379096
0.007340966
0.0024666298
0.00070308686
0.00020368235
0.00028387423
0.0020229267
0.10373413
0.12680377
0.21164997
0.49944314
1.1041445
1.8833261
2.509013
2.6756655
2.3723277
1.8691069
1.6947796
2.3515229
3.5366181
4.3758117
4.3871554
3.7365903
2.7404537
1.7260642
0.95544303
0.48542279
0.23305011
0.10692101
0.046764148
0.019254196
0.0072937801
0.0024508468
0.00069868572
0.00020266376
0.00028317737
0.0020183646
0.10376755
0.12668569
0.21068108
0.49601253
1.0974854
1.8745902
2.5005148
2.668718
2.366764
1.8644089
1.6902412
2.345861
3.5280529
4.3624641
4.3709068
3.7201822
2.7265708
1.7161312
0.94953823
0.48232482
0.23154585
0.10622933
0.046461992
0.019130075
0.0072468914
0.0024351642
0.00069431291
0.00020165157
0.00028248357
0.0020138176
0.1038082
0.12657715
0.20973264
0.49261844
1.0908629
1.8658818
2.4920319
2.6617801
2.3612095
1.8597202
1.685706
2.3401928
3.5194765
4.3491106
4.3546682
3.7038049
2.7127306
1.7062407
0.94366335
0.47924375
0.23005004
0.10554159
0.04616156
0.019006667
0.0072002732
0.0024195728
0.0006899658
0.0002006451
0.00028179215
0.0020092811
0.10385622
0.12647827
0.20880474
0.48926092
1.084277
1.857201
2.4835644
2.6548516
2.3556639
1.8550407
1.681174
2.3345189
3.510889
4.3357506
4.3384401
3.6874586
2.6989335
1.6963933
0.93781898
0.47618006
0.22856298
0.10485793
0.045862931
0.018884004
0.0071539396
0.0024040776
0.00068564585
0.00019964484
0.00028110397
0.0020047604
0.10391178
0.12638918
0.20789742
0.48593999
1.077728
1.8485481
2.4751126
2.6479324
2.3501272
1.8503703
1.6766454
2.3288393
3.502291
4.3223842
4.3222229
3.671143
2.6851793
1.6865886
0.93200463
0.4731334
0.22708446
0.10417825
0.045566054
0.018762065
0.0071078816
0.0023886756
0.00068135222
0.00019865047
0.00028041829
0.0020002501
0.103975
0.12630999
0.20701074
0.48265563
1.0712159
1.8399233
2.4666765
2.6410225
2.3445991
1.845709
1.6721202
2.3231545
3.493683
4.3090123
4.3060157
3.6548577
2.6714676
1.6768264
0.92622026
0.47010382
0.22561456
0.10350261
0.04527096
0.018640867
0.0070621059
0.0023733691
0.00067708561
0.0001976623
0.00027973578
0.0019957545
0.10404603
0.12624083
0.20614469
0.47940782
1.0647408
1.8313268
2.4582563
2.6341219
2.3390796
1.8410567
1.6675986
2.3174648
3.4850654
4.2956356
4.2898187
3.6386021
2.6577968
1.6671049
0.92046443
0.46709033
0.22415268
0.10283069
0.0449775
0.018520341
0.0070165862
0.0023581494
0.00067284358
0.00019667974
0.00027905584
0.0019912694
0.10412502
0.1261818
0.20529929
0.47619652
1.058303
1.8227588
2.4498521
2.6272307
2.3335686
1.8364136
1.6630809
2.3117707
3.4764385
4.2822534
4.2736329
3.6223767
2.6441675
1.6574247
0.91473771
0.46409335
0.2226991
0.10216266
0.044685751
0.018400525
0.0069713373
0.0023430214
0.00066862766
0.0001957033
0.00027837931
0.0019868003
0.10421209
0.12613302
0.20447452
0.47302169
1.0519022
1.8142196
2.4414641
2.6203488
2.328066
1.8317796
1.6585671
2.3060728
3.4678031
4.2688667
4.2574583
3.6061812
2.6305796
1.6477854
0.90903971
0.46111261
0.22125365
0.1014984
0.044395665
0.018281397
0.0069263501
0.002327982
0.00066443689
0.00019473258
0.00027770531
0.0019823406
0.10430739
0.12609459
0.20367039
0.46988324
1.0455389
1.8057094
2.4330925
2.6134765
2.3225719
1.8271549
1.6540576
2.3003714
3.4591601
4.2554767
4.2412944
3.5900159
2.617033
1.6381871
0.90337039
0.45814817
0.21981638
0.10083797
0.044107267
0.018162968
0.0068816299
0.002313033
0.0006602718
0.00019376785
0.00027703446
0.0019778944
0.10441104
0.12606661
0.20288692
0.46678103
1.0392129
1.7972284
2.4247374
2.6066139
2.3170863
1.8225395
1.6495525
2.2946671
3.4505101
4.2420841
4.2251424
3.5738804
2.6035263
1.6286279
0.8977283
0.45519899
0.21838672
0.10018106
0.043820411
0.018045174
0.0068371515
0.002298166
0.00065613002
0.00019280853
0.00027636632
0.0019734585
0.10452318
0.12604918
0.20212405
0.46371495
1.0329244
1.7887768
2.4163991
2.599761
2.3116092
1.8179334
1.645052
2.2889604
3.4418537
4.2286888
4.2090034
3.5577752
2.5900603
1.6191088
0.8921143
0.45226569
0.21696501
0.099527865
0.04353519
0.017928057
0.0067929316
0.0022833867
0.00065201327
0.0001918552
0.00027570178
0.0019690386
0.10464392
0.1260424
0.20138174
0.46068483
1.0266733
1.7803548
2.4080778
2.5929181
2.3061407
1.813337
1.6405563
2.283252
3.4331918
4.2152921
4.1928774
3.5417009
2.5766355
1.6096299
0.8865282
0.44934808
0.21555114
0.098878305
0.043251567
0.0178116
0.0067489629
0.0022686927
0.00064792081
0.00019090751
0.00027503997
0.0019646285
0.1047734
0.12604634
0.20065993
0.45769053
1.0204597
1.7719627
2.3997736
2.5860854
2.3006809
1.8087502
1.6360657
2.2775422
3.4245254
4.2018954
4.1767644
3.5256579
2.563252
1.600191
0.88096997
0.4464462
0.21414514
0.098232419
0.042969561
0.017695813
0.0067052496
0.0022540854
0.00064385309
0.00018996567
0.00027438132
0.0019602307
0.10491171
0.1260611
0.19995858
0.45473186
1.0142836
1.7636006
2.3914867
2.5792632
2.2952299
1.8041733
1.6315804
2.2718316
3.4158555
4.1884997
4.1606666
3.5096461
2.5499085
1.5907907
0.8754382
0.44355907
0.21274644
0.097589901
0.042689028
0.017580633
0.0066617668
0.0022395562
0.00063980774
0.00018902914
0.00027372541
0.0019558421
0.10505899
0.12608675
0.19927762
0.45180861
1.008145
1.7552687
2.3832173
2.5724518
2.289788
1.7996066
1.6271007
2.2661208
3.4071826
4.1751051
4.1445847
3.4936662
2.5366059
1.5814299
0.86993382
0.44068734
0.21135544
0.096950965
0.042410068
0.017466102
0.0066185322
0.0022251112
0.0006357865
0.00018809847
0.00027307321
0.0019514695
0.10521533
0.12612336
0.198617
0.44892058
1.002044
1.7469671
2.3749656
2.5656515
2.2843552
1.7950501
1.6226266
2.2604106
3.3985081
4.1617133
4.1285186
3.4777192
2.5233451
1.5721089
0.86445688
0.43783093
0.20997206
0.096315557
0.042132655
0.017352209
0.00657554
0.0022107484
0.00063178866
0.00018717331
0.00027242381
0.0019471062
0.10538084
0.12617099
0.19797662
0.44606746
0.99598054
1.7386961
2.3667318
2.5588626
2.2789318
1.7905041
1.6181585
2.2547014
3.3898329
4.148326
4.1124694
3.4618057
2.5101266
1.562828
0.85900739
0.43498991
0.20859634
0.095683712
0.041856807
0.017238963
0.0065327944
0.0021964692
0.00062781473
0.00018625385
0.00027177765
0.0019427548
0.10555562
0.12622972
0.19735637
0.44324908
0.98995453
1.7304558
2.3585159
2.5520854
2.273518
1.785969
1.6136965
2.2489938
3.3811584
4.1349442
4.0964395
3.4459261
2.4969491
1.5535855
0.85358393
0.43216328
0.20722773
0.095055138
0.041582385
0.017126302
0.0064902713
0.0021822655
0.0006238624
0.00018533959
0.00027113436
0.0019384127
0.10573976
0.12629959
0.19675615
0.44046512
0.98396545
1.7222466
2.3503194
2.5453204
2.268114
1.7814448
1.6092407
2.2432888
3.3724854
4.1215684
4.0804297
3.4300813
2.483814
1.5443829
0.84818773
0.42935189
0.20586669
0.094430074
0.041309504
0.017014278
0.0064479903
0.0021681441
0.00061993366
0.00018443114
0.00027049489
0.0019340865
0.10593336
0.12638065
0.19617585
0.43771535
0.97801193
1.7140687
2.342145
2.5385679
2.2627201
1.776932
1.6047912
2.2375873
3.3638154
4.1082007
4.0644398
3.4142722
2.4707222
1.5352205
0.84281887
0.42655565
0.20451315
0.093808473
0.041038135
0.016902876
0.0064059455
0.0021541026
0.00061602779
0.00018352813
0.00026985821
0.0019297686
0.10613649
0.12647295
0.19561539
0.43499949
0.97209399
1.7059224
2.3339928
2.5318282
2.2573365
1.7724308
1.6003479
2.2318903
3.3551498
4.0948428
4.0484716
3.3985
2.4576742
1.5260984
0.83747733
0.42377461
0.20316715
0.09319037
0.040768299
0.016792105
0.0063641412
0.0021401426
0.00061214523
0.00018263073
0.00026922472
0.0019254618
0.10634923
0.12657651
0.19507465
0.4323172
0.96621166
1.6978077
2.325863
2.5251016
2.2519636
1.7679414
1.5959107
2.2261992
3.3464902
4.0814957
4.0325277
3.382765
2.444669
1.5170153
0.8321618
0.42100784
0.20182817
0.092575484
0.040499862
0.016681908
0.0063225542
0.002126256
0.00060828369
0.00018173841
0.0002685941
0.0019211637
0.10657166
0.12669138
0.19455347
0.42966823
0.96036488
1.6897247
2.3177557
2.5183887
2.2466018
1.7634642
1.5914793
2.2205159
3.337838
4.0681603
4.0166083
3.3670682
2.4317082
1.5079728
0.82687367
0.41825628
0.20049672
0.091964085
0.040232951
0.01657234
0.0062812065
0.0021124505
0.00060444534
0.00018085183
0.00026796736
0.0019168815
0.10680384
0.12681757
0.19405171
0.42705223
0.95455371
1.6816735
2.3096713
2.5116896
2.2412513
1.7589994
1.587053
2.214843
3.3291949
4.0548387
4.0007136
3.3514107
2.4187928
1.4989714
0.82161305
0.41551987
0.19917274
0.091356122
0.039967539
0.016463386
0.0062400915
0.0020987237
0.00060062937
0.00017997053
0.00026734334
0.0019126069
0.10704584
0.1269551
0.19356922
0.42446893
0.94877812
1.6736542
2.3016098
2.5050047
2.2359125
1.7545474
1.582631
2.209184
3.3205619
4.0415322
3.9848458
3.3357936
2.405923
1.4900109
0.81637982
0.4127986
0.19785624
0.09075162
0.039703641
0.016355057
0.0061992131
0.002085077
0.00059683628
0.00017909474
0.00026672247
0.0019083428
0.10729771
0.12710398
0.19310587
0.42191801
0.94303814
1.6656667
2.2935713
2.4983346
2.2305858
1.750108
1.5782158
2.2035392
3.3119401
4.0282415
3.9690069
3.320217
2.3930979
1.48109
0.81117266
0.41009152
0.19654668
0.09015029
0.039441118
0.016247289
0.0061585475
0.0020715022
0.00059306376
0.00017822393
0.00026610443
0.001904087
0.10755949
0.12726421
0.19266152
0.41939909
0.93733379
1.6577113
2.2855561
2.4916793
2.2252716
1.7456806
1.5738122
2.1979062
3.3033299
4.0149674
3.9531968
3.3046819
2.3803192
1.4722105
0.80599307
0.40739963
0.19524463
0.089552427
0.03918011
0.016140145
0.0061181181
0.0020580073
0.0005893141
0.00017735882
0.0002654903
0.0018998474
0.10783123
0.12743578
0.192236
0.41691189
0.93166504
1.6497877
2.277564
2.4850394
2.2199704
1.7412654
1.5694204
2.1922856
3.294732
4.0017116
3.9374157
3.2891895
2.3675877
1.4633728
0.80084111
0.40472288
0.19395001
0.088957978
0.038920587
0.016033608
0.0060779185
0.0020445897
0.00058558641
0.0001764989
0.00026487884
0.0018956151
0.10811297
0.12761868
0.19182915
0.41445598
0.92603194
1.6418962
2.2695953
2.4784153
2.2146825
1.7368628
1.5650408
2.1866776
3.2861466
3.9884749
3.921666
3.2737407
2.3549037
1.4545768
0.79571669
0.40206127
0.19266287
0.08836698
0.038662571
0.01592769
0.0060379539
0.0020312513
0.00058188127
0.00017564436
0.00026427043
0.0018913928
0.10840473
0.1278129
0.19144075
0.41203109
0.92043447
1.6340367
2.26165
2.4718071
2.2094084
1.7324731
1.5606735
2.1810828
3.2775749
3.9752578
3.905949
3.2583354
2.3422663
1.445821
0.79061858
0.39941391
0.19138265
0.087779143
0.038405924
0.015822331
0.0059982001
0.002017984
0.00057819626
0.00017479461
0.00026366463
0.0018871777
0.10870654
0.1280184
0.19107065
0.40963686
0.91487268
1.6262091
2.2537281
2.4652153
2.2041485
1.7280965
1.5563188
2.1755016
3.2690176
3.9620612
3.8902643
3.2429746
2.329677
1.4371073
0.78554818
0.39678172
0.19010991
0.087194744
0.038150777
0.015717587
0.0059586787
0.002004795
0.00057453354
0.00017395033
0.00026306255
0.0018829779
0.10901841
0.12823516
0.19071866
0.4072729
0.90934663
1.6184136
2.2458297
2.4586401
2.1989032
1.7237334
1.5519769
2.1699342
3.2604752
3.9488865
3.8746123
3.2276592
2.3171365
1.428436
0.78050544
0.39416457
0.18884453
0.086613725
0.037897095
0.015613442
0.005919383
0.0019916818
0.00057089227
0.00017311108
0.00026246302
0.0018787851
0.10934035
0.12846313
0.19038462
0.40493888
0.90385633
1.61065
2.2379547
2.452082
2.1936728
1.7193839
1.547648
2.1643808
3.2519479
3.9357344
3.8589955
3.2123901
2.3046449
1.4198067
0.77549021
0.39156249
0.18758658
0.086036128
0.037644907
0.015509911
0.0058803195
0.0019786469
0.00056727322
0.00017227714
0.00026186653
0.0018746028
0.10967236
0.12870225
0.19006834
0.40263436
0.89840186
1.6029184
2.2301032
2.4455409
2.1884578
1.7150485
1.5433321
2.1588419
3.2434363
3.922605
3.8434146
3.1971671
2.2922015
1.4112182
0.77050136
0.38897463
0.18633553
0.085461677
0.037394079
0.015406933
0.0058414643
0.0019656819
0.00056367396
0.00017144789
0.00026127254
0.0018704277
0.11001445
0.12895249
0.1897696
0.40035902
0.89298322
1.5952187
2.222275
2.4390174
2.1832585
1.7107272
1.5390294
2.1533175
3.2349412
3.9094991
3.8278688
3.1819911
2.2798078
1.4026726
0.76554046
0.386402
0.18509195
0.084890659
0.037144744
0.015304565
0.0058028397
0.0019527941
0.00056009656
0.00017062393
0.00026068202
0.001866267
0.11036658
0.12921377
0.18948817
0.39811242
0.8876005
1.5875508
2.2144702
2.4325116
2.1780751
1.7064204
1.5347401
2.1478076
3.2264626
3.8964179
3.8123588
3.166863
2.2674643
1.3941698
0.76060732
0.3838444
0.18385571
0.084322996
0.036896863
0.015202791
0.005764438
0.0019399809
0.00055654009
0.00016980479
0.00026009385
0.001862113
0.11072876
0.12948602
0.18922386
0.39589419
0.88225377
1.5799148
2.2066886
2.4260235
2.1729081
1.7021284
1.5304642
2.1423124
3.2180004
3.8833615
3.7968867
3.1517833
2.255171
1.3857095
0.75570171
0.3813018
0.18262685
0.083758731
0.036650464
0.015101624
0.0057262657
0.0019272448
0.0005530053
0.00016899071
0.00025950855
0.0018579692
0.11110095
0.12976916
0.18897645
0.39370394
0.87694308
1.5723106
2.1989302
2.4195536
2.1677576
1.6978512
1.5262018
2.1368318
3.209555
3.8703299
3.7814528
3.1367517
2.2429271
1.3772904
0.75082249
0.37877338
0.18140487
0.083197604
0.03640542
0.015001009
0.0056883004
0.0019145779
0.00054948996
0.00016818113
0.00025892553
0.0018538322
0.11148312
0.1300631
0.18874574
0.39154117
0.87166856
1.5647382
2.1911949
2.413102
2.162624
1.6935891
1.5219529
2.1313661
3.2011269
3.8573236
3.766056
3.1217688
2.2307339
1.3689143
0.74597117
0.37626012
0.18019032
0.082639889
0.03616186
0.014901
0.0056505632
0.0019019873
0.00054599609
0.00016737665
0.00025834563
0.0018497082
0.11187522
0.13036776
0.18853151
0.38940553
0.86643026
1.5571974
2.1834826
2.4066686
2.1575074
1.6893423
1.5177176
2.125915
3.1927162
3.8443436
3.7506969
3.1068353
2.2185918
1.3605813
0.74114759
0.37376182
0.17898306
0.082085501
0.035919738
0.014801577
0.0056130458
0.0018894701
0.00054252272
0.0001665768
0.00025776779
0.00184559
0.11227722
0.13068302
0.18833353
0.38729649
0.86122828
1.5496883
2.1757931
2.4002538
2.1524082
1.685111
1.5134958
2.1204782
3.1843221
3.8313895