/*--------------------------------*- C++ -*----------------------------------*\
| =========                 |                                                 |
| \\      /  F ield         | OpenFOAM: The Open Source CFD Toolbox           |
|  \\    /   O peration     | Version:  v2012                                 |
|   \\  /    A nd           | Website:  www.openfoam.com                      |
|    \\/     M anipulation  |                                                 |
\*---------------------------------------------------------------------------*/
FoamFile
{
    version     2.0;
    format      ascii;
    class       volScalarField;
    location    "750";
    object      Ma;
}
// * * * * * * * * * * * * * * * * * * * * * * * * * * * * * * * * * * * * * //

dimensions      [0 0 0 0 0 0 0];


internalField   nonuniform List<scalar> 
24000
(
0.045252948
0.045602584
0.04678462
0.048482112
0.049174271
0.048190828
0.046336681
0.044341972
0.042368837
0.040201279
0.037418184
0.033904379
0.030274485
0.026790144
0.023294505
0.019840158
0.016632339
0.013760454
0.011252795
0.009115764
0.007325879
0.0058367342
0.0045993444
0.0035705538
0.0027144415
0.002001512
0.001407538
0.00091255388
0.0005000474
0.00015632478
0.04523131
0.045581391
0.046763267
0.048463526
0.049163468
0.048183203
0.046325273
0.044324913
0.042346657
0.040175641
0.037391161
0.033877576
0.030248197
0.026762911
0.023266185
0.019812025
0.016604739
0.013733439
0.011226558
0.0090905779
0.0073021184
0.0058148564
0.0045798039
0.003553699
0.0027004655
0.0019904519
0.0013993033
0.00090696356
0.0004968672
0.00015529448
0.045212257
0.045559925
0.046735028
0.04843215
0.049137836
0.04816184
0.046303396
0.044301049
0.042321125
0.040149058
0.037364945
0.033852602
0.030224706
0.026739715
0.02324316
0.019790664
0.016586232
0.01371841
0.011215319
0.0090830455
0.0072977266
0.0058128332
0.0045793898
0.0035542507
0.0027014915
0.0019916037
0.0014003539
0.0009077777
0.00049737547
0.00015547253
0.045192283
0.045538176
0.046708439
0.048404373
0.049116481
0.048144356
0.046284408
0.044278821
0.042295961
0.040121959
0.037337404
0.033825609
0.030198739
0.026713806
0.023217504
0.019767039
0.016565595
0.013700985
0.011201002
0.0090715124
0.0072884812
0.0058054333
0.0045734932
0.0035496047
0.0026979019
0.0019889152
0.001398436
0.00090651895
0.00049667833
0.00015525229
0.045172195
0.045516346
0.046681946
0.048376736
0.049095218
0.048126958
0.04626526
0.0442563
0.042270422
0.040094442
0.037309327
0.033797969
0.030172132
0.026687347
0.023191375
0.019742973
0.016544527
0.013683162
0.011186406
0.0090598908
0.0072793765
0.0057983738
0.0045680714
0.0035454909
0.002694837
0.0019866939
0.0013968967
0.00090553312
0.00049614347
0.00015508672
0.045151994
0.045494526
0.046655685
0.048349503
0.049074394
0.048109987
0.046246415
0.044233893
0.042244904
0.040066852
0.037281038
0.033769977
0.0301451
0.026660429
0.023164749
0.019718376
0.016522917
0.013664799
0.011171294
0.0090477795
0.0072698146
0.0057908898
0.0045622656
0.0035410427
0.0026914921
0.0019842496
0.0013951901
0.00090443304
0.00049554348
0.00015489995
0.045131762
0.045472751
0.046629585
0.048322394
0.049053739
0.048093167
0.046227656
0.044211516
0.042219383
0.040039207
0.037252609
0.03374176
0.030117806
0.026633212
0.023137815
0.019693447
0.016500966
0.013646117
0.011155886
0.0090354109
0.0072600377
0.0057832322
0.0045563226
0.003536489
0.0026880666
0.0019817465
0.0013934426
0.00090330661
0.00049492923
0.00015470873
0.045111531
0.045451035
0.046603602
0.048295398
0.049033172
0.048076471
0.046208982
0.044189213
0.042193881
0.040011546
0.037224111
0.033713409
0.030090346
0.026605812
0.023110672
0.019668304
0.016478806
0.013627237
0.011140294
0.0090228815
0.0072501198
0.0057754553
0.0045502817
0.0035318551
0.002684579
0.0019791954
0.0013916605
0.00090215731
0.00049430229
0.00015451348
0.045091323
0.045429385
0.046577725
0.048268406
0.049012643
0.048059819
0.046190379
0.044166938
0.042168394
0.03998388
0.037195568
0.033684985
0.03006277
0.02657829
0.023083397
0.019643028
0.016456513
0.013608232
0.011124593
0.0090102557
0.007240115
0.0057676044
0.0045441785
0.0035271716
0.0026810519
0.0019766145
0.0013898569
0.00090099389
0.00049366737
0.00015431568
0.045071151
0.045407799
0.046551885
0.048241445
0.048992114
0.048043222
0.046171786
0.044144679
0.042142921
0.039956215
0.037166998
0.033656507
0.030035121
0.026550701
0.023056067
0.019617683
0.016434154
0.013589156
0.011108831
0.008997571
0.0072300587
0.0057597087
0.0045380382
0.0035224569
0.0026775004
0.0019740151
0.0013880397
0.00089982151
0.00049302736
0.00015411627
0.04505102
0.045386278
0.046526114
0.048214448
0.048971568
0.04802663
0.04615327
0.044122432
0.04211746
0.039928559
0.03713843
0.033627998
0.030007447
0.026523067
0.023028698
0.019592308
0.016411761
0.013570053
0.011093036
0.0089848554
0.0072199771
0.0057517882
0.0045318752
0.003517723
0.0026739335
0.0019714039
0.001386214
0.00089864343
0.00049238407
0.00015391588
0.045030934
0.045364821
0.046500387
0.048187447
0.04895099
0.048010059
0.046134748
0.044100222
0.042092012
0.039900916
0.037109862
0.033599481
0.029979755
0.026495422
0.023001305
0.019566915
0.016389355
0.01355094
0.011077227
0.0089721255
0.0072098801
0.0057438543
0.0045256988
0.003512978
0.0026703564
0.0019687849
0.0013843825
0.00089746129
0.00049173863
0.00015371476
0.045010889
0.045343424
0.046474719
0.048160396
0.048930368
0.047993484
0.046116261
0.044078038
0.042066577
0.039873284
0.037081303
0.033570971
0.02995205
0.026467769
0.022973923
0.01954153
0.016366954
0.01353183
0.011061424
0.0089593995
0.0071997811
0.0057359174
0.0045195209
0.0035082303
0.0026667767
0.0019661634
0.0013825491
0.00089627779
0.0004910925
0.00015351339
0.04499089
0.045322085
0.046449074
0.048133318
0.048909703
0.047976907
0.046097791
0.044055858
0.042041155
0.03984567
0.037052758
0.033542468
0.029924341
0.026440121
0.02294656
0.019516169
0.016344575
0.013512734
0.011045639
0.0089466849
0.0071896885
0.0057279833
0.0045133432
0.0035034823
0.0026631969
0.0019635408
0.0013807149
0.00089509359
0.00049044599
0.00015331189
0.04497094
0.045300801
0.046423466
0.048106189
0.048888979
0.047960333
0.046079322
0.044033683
0.042015746
0.039818069
0.037024225
0.033513972
0.029896657
0.026412488
0.02291921
0.01949083
0.016322224
0.013493668
0.011029873
0.0089339845
0.0071796069
0.0057200564
0.0045071701
0.0034987372
0.0026596183
0.0019609193
0.0013788808
0.00089390969
0.00048979947
0.00015311037
0.044951038
0.045279579
0.046397882
0.048079016
0.048868205
0.047943742
0.046060896
0.044011531
0.041990351
0.039790484
0.03699571
0.033485497
0.029868986
0.026384871
0.022891883
0.01946552
0.016299899
0.013474632
0.011014129
0.0089213006
0.00716954
0.0057121383
0.0045010027
0.0034939953
0.0026560424
0.0019582993
0.0013770478
0.00089272622
0.00048915306
0.00015290888
0.044931185
0.045258406
0.046372345
0.048051803
0.048847367
0.047927152
0.046042451
0.04398941
0.04196497
0.039762916
0.036967224
0.033457044
0.029841326
0.02635728
0.022864602
0.019440249
0.016277613
0.013455628
0.010998414
0.0089086421
0.0071594912
0.0057042358
0.0044948457
0.0034892615
0.0026524721
0.0019556837
0.0013752178
0.00089154479
0.00048850767
0.00015270775
0.044911382
0.045237289
0.046346842
0.048024519
0.048826468
0.047910539
0.04602405
0.04396729
0.041939603
0.039735364
0.036938758
0.03342862
0.02981368
0.026329708
0.022837349
0.019415022
0.016255368
0.013436658
0.010982738
0.0088960116
0.00714946
0.0056963463
0.0044886998
0.0034845355
0.0026489065
0.0019530715
0.0013733902
0.00089036464
0.00048786312
0.00015250686
0.04489163
0.045216233
0.04632135
0.047997205
0.048805508
0.047893926
0.04600564
0.043945172
0.041914248
0.039707828
0.036910319
0.033400214
0.029786074
0.026302171
0.022810124
0.01938983
0.016233166
0.013417732
0.010967094
0.0088834077
0.0071394503
0.0056884717
0.0044825646
0.0034798172
0.002645347
0.001950463
0.0013715652
0.00088918609
0.00048721953
0.00015230624
0.04487193
0.045195238
0.046295885
0.047969818
0.048784477
0.047877286
0.045987244
0.043923068
0.041888907
0.03968031
0.036881902
0.033371835
0.029758489
0.026274659
0.02278295
0.019364683
0.016211001
0.013398847
0.010951481
0.00887083
0.0071294618
0.0056806131
0.0044764408
0.0034751076
0.0026417936
0.0019478585
0.0013697427
0.00088800913
0.0004865768
0.00015210587
0.044852281
0.045174305
0.046270457
0.047942395
0.048763385
0.047860642
0.045968864
0.043900998
0.041863578
0.03965281
0.036853507
0.033343482
0.029730923
0.026247176
0.022755815
0.019339587
0.016188888
0.013380003
0.010935907
0.0088582834
0.0071195005
0.0056727743
0.0044703328
0.0034704096
0.0026382491
0.0019452609
0.0013679246
0.00088683521
0.00048593558
0.00015190597
0.044832686
0.045153433
0.046245069
0.047914903
0.048742216
0.047843978
0.04595047
0.043878927
0.041838262
0.039625328
0.036825142
0.033315168
0.029703377
0.026219725
0.022728714
0.019314534
0.016166822
0.013361199
0.010920374
0.0088457678
0.0071095606
0.0056649537
0.0044642367
0.0034657202
0.0026347112
0.0019426678
0.00136611
0.00088566332
0.00048529538
0.00015170639
0.044813145
0.045132622
0.046219687
0.047887365
0.048720981
0.047827294
0.045932114
0.043856852
0.041812958
0.039597871
0.036796807
0.033286878
0.029675877
0.026192306
0.022701655
0.019289525
0.0161448
0.013342444
0.010904879
0.0088332861
0.0070996439
0.0056571509
0.004458155
0.0034610418
0.0026311807
0.0019400806
0.0013642992
0.00088449402
0.0004846565
0.00015150726
0.04479366
0.045111875
0.046194332
0.047859765
0.048699672
0.047810598
0.04591373
0.043834789
0.041787666
0.039570432
0.036768497
0.033258614
0.0296484
0.026164922
0.022674647
0.019264565
0.016122821
0.013323734
0.010889422
0.0088208346
0.0070897532
0.0056493668
0.0044520881
0.0034563742
0.0026276576
0.0019374986
0.0013624922
0.00088332686
0.00048401893
0.00015130851
0.04477423
0.045091191
0.046168998
0.047832113
0.048678289
0.047793875
0.045895384
0.043812758
0.041762386
0.039543014
0.036740218
0.033230382
0.029620945
0.026137564
0.022647674
0.019239657
0.016100897
0.013305068
0.010874004
0.0088084161
0.0070798902
0.0056416049
0.0044460375
0.0034517195
0.002624145
0.0019349235
0.0013606901
0.0008821629
0.00048338321
0.00015111032
0.044754857
0.045070571
0.046143704
0.047804406
0.048656837
0.047777141
0.045877018
0.043790722
0.041737123
0.039515615
0.036711963
0.033202184
0.029593511
0.026110245
0.022620735
0.019214789
0.016079019
0.013286441
0.010858623
0.0087960267
0.0070700512
0.0056338595
0.0044400007
0.0034470749
0.0026206396
0.0019323536
0.0013588916
0.00088100119
0.00048274873
0.0001509125
0.044735542
0.045050014
0.046118441
0.047776634
0.048635299
0.047760376
0.045858666
0.04376868
0.041711874
0.039488233
0.03668373
0.033174018
0.029566126
0.026082956
0.022593855
0.01918997
0.016057185
0.013267862
0.010843286
0.0087836709
0.0070602362
0.0056261353
0.0044339784
0.0034424413
0.002617143
0.0019297904
0.0013570972
0.00087984239
0.00048211571
0.00015071514
0.044716285
0.045029521
0.046093179
0.047748813
0.048613694
0.0477436
0.045840314
0.043746648
0.041686635
0.039460868
0.036655531
0.033145876
0.029538763
0.026055701
0.022567011
0.019165203
0.016035397
0.01324933
0.010827986
0.0087713486
0.0070504452
0.0056184294
0.0044279696
0.0034378175
0.0026136536
0.0019272323
0.0013553066
0.00087868582
0.00048148379
0.00015051812
0.044697088
0.045009094
0.046067941
0.047720921
0.048592007
0.0477268
0.045821952
0.043724643
0.041661407
0.03943352
0.036627361
0.033117769
0.029511422
0.026028474
0.022540202
0.019140481
0.01601366
0.013230841
0.010812724
0.0087590581
0.0070406816
0.0056107434
0.0044219781
0.0034332069
0.0026101729
0.001924681
0.0013535206
0.00087753233
0.00048085345
0.00015032163
0.044677951
0.044988727
0.046042733
0.047692984
0.048570243
0.047709978
0.045803611
0.04370263
0.041636187
0.039406189
0.036599217
0.03308969
0.029484104
0.026001285
0.02251344
0.019115802
0.015991971
0.013212391
0.010797496
0.0087467953
0.0070309406
0.0056030754
0.0044159989
0.0034286056
0.0026066991
0.0019221345
0.0013517382
0.00087638092
0.00048022443
0.00015012552
0.044658875
0.044968424
0.046017562
0.047664983
0.048548405
0.047693137
0.045785238
0.043680608
0.041610976
0.039378874
0.036571103
0.03306165
0.029456834
0.025974129
0.022486725
0.019091171
0.015970325
0.013193989
0.010782315
0.0087345662
0.0070212273
0.0055954272
0.0044100357
0.0034240166
0.0026032351
0.0019195945
0.0013499603
0.0008752324
0.00047959705
0.00014992992
0.04463986
0.044948185
0.045992408
0.047636929
0.04852648
0.047676267
0.045766904
0.043658601
0.041585774
0.039351576
0.036543012
0.033033635
0.029429587
0.025947
0.022460045
0.019066593
0.015948726
0.013175635
0.010767172
0.0087223713
0.0070115383
0.0055877994
0.0044040873
0.0034194384
0.0025997788
0.0019170598
0.001348186
0.00087408615
0.00047897093
0.00014973469
0.044620907
0.04492801
0.045967266
0.04760882
0.048504487
0.047659383
0.045748533
0.043636612
0.04156058
0.039324294
0.036514944
0.033005649
0.029402361
0.025919906
0.022433398
0.019042055
0.015927176
0.013157323
0.010752066
0.0087102096
0.0070018747
0.0055801926
0.0043981546
0.0034148725
0.0025963323
0.0019145327
0.0013464165
0.00087294318
0.00047834651
0.00014953999
0.044602017
0.044907892
0.045942139
0.047580654
0.048482407
0.047642473
0.045730191
0.043614613
0.041535394
0.039297028
0.03648691
0.032977694
0.029375158
0.025892844
0.02240681
0.019017563
0.015905672
0.013139048
0.010736994
0.0086980755
0.006992235
0.0055726025
0.0043922357
0.0034103165
0.0025928931
0.0019120109
0.001344651
0.00087180269
0.00047772332
0.00014934567
0.044583189
0.044887841
0.04591705
0.047552444
0.048460253
0.047625546
0.045711824
0.043592603
0.041510216
0.039269783
0.036458903
0.032949773
0.029348002
0.025865817
0.022380256
0.018993119
0.01588421
0.013120819
0.010721964
0.0086859724
0.0069826208
0.0055650334
0.0043863331
0.0034057733
0.0025894627
0.0019094961
0.0013428903
0.0008706654
0.00047710178
0.00014915189
0.044564423
0.044867854
0.045891995
0.047524168
0.048438022
0.047608599
0.045693468
0.043570617
0.041485045
0.039242556
0.036430922
0.032921884
0.029320868
0.025838812
0.022353734
0.018968721
0.015862794
0.013102637
0.010706973
0.0086739005
0.0069730313
0.0055574813
0.0043804428
0.0034012393
0.0025860391
0.0019069858
0.0013411329
0.00086953001
0.0004764814
0.00014895847
0.044545721
0.044847933
0.04586695
0.04749585
0.048415707
0.047591629
0.045675104
0.043548637
0.041459881
0.039215344
0.036402969
0.032894017
0.029293755
0.025811846
0.022327257
0.018944363
0.015841424
0.013084494
0.010692017
0.0086618614
0.0069634654
0.0055499485
0.0043745682
0.0033967172
0.0025826245
0.0019044816
0.0013393797
0.00086839733
0.00047586259
0.00014876553
0.044527082
0.044828075
0.045841918
0.047467469
0.048393325
0.047574643
0.045656732
0.043526645
0.041434724
0.039188152
0.036375038
0.032866184
0.029266662
0.025784908
0.022300824
0.018920048
0.015820098
0.013066389
0.010677095
0.0086498506
0.0069539209
0.0055424339
0.0043687059
0.0033922043
0.0025792169
0.0019019821
0.0013376298
0.0008672667
0.00047524495
0.00014857292
0.044508504
0.044808283
0.045816905
0.047439043
0.048370854
0.047557632
0.04563837
0.043504642
0.041409574
0.039160975
0.03634713
0.032838375
0.029239614
0.025758
0.022274423
0.018895783
0.015798814
0.013048326
0.010662211
0.008637871
0.0069444038
0.0055349394
0.0043628595
0.0033877037
0.0025758191
0.0018994902
0.0013358847
0.00086613931
0.00047462902
0.00014838086
0.044489988
0.044788554
0.045791929
0.047410571
0.048348314
0.047540612
0.045619986
0.043482676
0.041384431
0.039133813
0.036319248
0.032810604
0.029212587
0.025731116
0.022248052
0.018871557
0.015777573
0.01303031
0.010647366
0.0086259188
0.0069349083
0.005527462
0.0043570271
0.0033832129
0.002572428
0.0018970032
0.0013341432
0.00086501419
0.00047401417
0.00014818913
0.044471534
0.044768888
0.045766986
0.047382046
0.048325697
0.047523574
0.045601625
0.043460701
0.041359304
0.039106665
0.036291396
0.032782856
0.029185579
0.025704265
0.022221734
0.018847371
0.015756376
0.013012331
0.010632556
0.0086139971
0.0069254386
0.0055200036
0.0043512094
0.0033787341
0.0025690454
0.001894523
0.0013324064
0.00086389216
0.00047340091
0.00014799789
0.044453142
0.044749282
0.045742052
0.047353485
0.048303
0.047506518
0.045583231
0.043438714
0.041334187
0.039079532
0.036263564
0.032755132
0.029158589
0.025677444
0.022195447
0.018823226
0.01573522
0.012994388
0.010617778
0.0086021053
0.0069159892
0.0055125608
0.0043454037
0.0033742642
0.0025656695
0.0018920473
0.001330673
0.00086277215
0.00047278884
0.00014780705
0.044434811
0.044729736
0.04571713
0.047324864
0.048280238
0.04748945
0.045564871
0.043416731
0.041309076
0.039052413
0.036235761
0.032727436
0.02913164
0.025650645
0.022169189
0.018799127
0.015714102
0.012976482
0.010603034
0.0085902429
0.0069065633
0.0055051387
0.0043396133
0.0033698062
0.0025623029
0.0018895778
0.001328944
0.00086165502
0.00047217846
0.00014761674
0.04441654
0.044710251
0.045692228
0.047296222
0.048257388
0.047472364
0.045546477
0.043394775
0.041283972
0.039025308
0.036207978
0.032699766
0.029104712
0.025623873
0.022142969
0.018775061
0.015693026
0.012958621
0.010588323
0.0085784047
0.0068971581
0.0054977314
0.0043338337
0.0033653561
0.0025589421
0.0018871123
0.0013272176
0.00086053948
0.00047156901
0.00014742669
0.044398329
0.044690824
0.045667363
0.047267515
0.048234481
0.047455263
0.045528113
0.043372807
0.041258875
0.038998217
0.036180214
0.032672126
0.029077799
0.025597127
0.022116789
0.018751035
0.015671991
0.012940796
0.010573651
0.0085665944
0.0068877752
0.0054903416
0.0043280683
0.0033609166
0.0025555899
0.0018846534
0.0013254955
0.00085942666
0.00047096104
0.00014723709
0.044380176
0.044671455
0.04564253
0.047238781
0.048211504
0.047438134
0.045509721
0.043350828
0.041233783
0.03897114
0.03615247
0.032644505
0.029050902
0.025570409
0.022090635
0.018727048
0.015650992
0.012923003
0.010559007
0.0085548105
0.0068784144
0.0054829682
0.0043223155
0.0033564864
0.0025522438
0.001882199
0.0013237765
0.0008583161
0.00047035412
0.00014704782
0.044362081
0.04465214
0.045617712
0.047210003
0.048188459
0.047420982
0.045491354
0.043328875
0.041208697
0.038944076
0.036124755
0.032616908
0.029024038
0.025543708
0.022064506
0.018703099
0.015630028
0.012905245
0.010544395
0.0085430575
0.0068690759
0.0054756123
0.0043165768
0.0033520678
0.0025489062
0.0018797515
0.0013220624
0.00085720861
0.00046974881
0.00014685905
0.044344042
0.044632876
0.045592903
0.047181182
0.04816536
0.047403809
0.045472972
0.043306929
0.041183619
0.038917025
0.036097059
0.032589331
0.028997194
0.025517033
0.022038422
0.018679181
0.015609102
0.012887525
0.010529811
0.008531327
0.006859755
0.0054682711
0.0043108493
0.0033476572
0.0025455745
0.0018773079
0.0013203512
0.00085610288
0.00046914441
0.0001466706
0.044326057
0.044613663
0.045568112
0.047152341
0.048142185
0.047386616
0.045454605
0.043284973
0.041158547
0.038889989
0.036069385
0.03256178
0.028970364
0.025490381
0.022012365
0.018655299
0.015588214
0.012869841
0.010515262
0.0085196217
0.0068504563
0.0054609479
0.0043051351
0.0033432572
0.0025422513
0.0018748699
0.0013186441
0.00085499975
0.0004685416
0.00014648263
0.044308126
0.044594503
0.045543358
0.047123451
0.048118963
0.047369411
0.045436238
0.043263018
0.041133483
0.038862972
0.036041732
0.032534253
0.028943546
0.02546375
0.02198633
0.018631455
0.015567359
0.012852187
0.010500743
0.0085079397
0.0068411755
0.0054536378
0.0042994309
0.0033388647
0.0025389336
0.0018724358
0.0013169396
0.00085389826
0.00046793978
0.00014629494
0.044290248
0.044575392
0.045518638
0.047094556
0.048095675
0.047352186
0.045417879
0.043241102
0.041108427
0.038835969
0.036014096
0.032506741
0.028916754
0.025437132
0.021960323
0.018607642
0.015546535
0.012834565
0.010486253
0.0084962842
0.0068319171
0.0054463452
0.0042937407
0.0033344824
0.0025356244
0.0018700081
0.0013152393
0.00085279953
0.00046733949
0.00014610773
0.044272415
0.04455633
0.045493946
0.047065601
0.048072331
0.047334947
0.045399532
0.043219178
0.04108338
0.03880898
0.035986477
0.032479252
0.028889985
0.025410544
0.021934356
0.01858386
0.015525748
0.012816975
0.010471788
0.0084846544
0.0068226771
0.0054390666
0.0042880616
0.0033301088
0.0025323207
0.0018675847
0.0013135417
0.00085170267
0.00046674007
0.00014592079
0.044254631
0.044537304
0.045469255
0.047036641
0.048048938
0.047317694
0.045381187
0.04319725
0.041058351
0.03878201
0.035958881
0.03245178
0.028863227
0.025383973
0.021908409
0.01856011
0.015504997
0.012799424
0.010457354
0.0084730488
0.0068134569
0.0054318039
0.0042823951
0.0033257454
0.0025290245
0.0018651672
0.0013118485
0.0008506085
0.00046614202
0.00014573426
0.044236895
0.044518323
0.04544458
0.047007649
0.048025481
0.047300431
0.045362869
0.043175356
0.04103334
0.038755056
0.03593131
0.032424335
0.028836479
0.02535742
0.021882484
0.018536398
0.015484277
0.012781901
0.010442952
0.008461464
0.006804254
0.0054245557
0.0042767392
0.0033213894
0.0025257336
0.0018627534
0.001310158
0.00084951611
0.00046554486
0.00014554803
0.044219205
0.044499387
0.045419944
0.046978628
0.048001985
0.047283164
0.045344549
0.043153478
0.041008341
0.038728119
0.035903756
0.032396908
0.028809751
0.025330883
0.021856594
0.018512713
0.015463586
0.012764407
0.010428578
0.0084499039
0.0067950716
0.0054173237
0.0042710961
0.003317044
0.0025224514
0.0018603455
0.0013084719
0.00084842647
0.00046494933
0.00014536232
0.044201558
0.044480494
0.045395344
0.046949605
0.04797843
0.047265884
0.045326265
0.043131598
0.040983354
0.038701197
0.035876227
0.032369495
0.028783048
0.025304368
0.021830732
0.01848906
0.015442929
0.01274694
0.010414228
0.0084383657
0.0067859063
0.0054101041
0.0042654622
0.0033127054
0.0025191744
0.001857941
0.0013067881
0.00084733831
0.0004643547
0.00014517688
0.044183954
0.044461639
0.045370778
0.046920538
0.04795483
0.047248597
0.045307977
0.043109733
0.040958379
0.038674292
0.035848716
0.032342104
0.028756353
0.025277871
0.021804889
0.018465436
0.015422307
0.012729513
0.010399905
0.0084268541
0.0067767615
0.0054029007
0.0042598412
0.0033083759
0.0025159046
0.001855542
0.0013051078
0.00084625241
0.00046376137
0.00014499182
0.044166389
0.044442822
0.045346221
0.046891487
0.047931188
0.047231312
0.045289736
0.043087911
0.040933419
0.038647405
0.035821223
0.032314726
0.028729666
0.025251386
0.021779064
0.018441845
0.015401712
0.012712112
0.010385608
0.0084153613
0.0067676316
0.0053957087
0.0042542295
0.0033040538
0.0025126398
0.0018531468
0.0013034299
0.00084516813
0.00046316888
0.00014480703
0.044148862
0.04442404
0.045321677
0.046862385
0.047907491
0.04721402
0.045271489
0.043066093
0.040908474
0.038620536
0.035793748
0.032287375
0.02870299
0.025224917
0.02175328
0.018418279
0.015381145
0.012694739
0.010371342
0.0084038911
0.0067585208
0.0053885329
0.0042486306
0.0032997423
0.0025093827
0.0018507579
0.0013017566
0.00084408687
0.00046257791
0.00014462271
0.044131371
0.044405294
0.045297165
0.046833297
0.047883765
0.047196731
0.045253297
0.04304428
0.040883544
0.038593685
0.035766297
0.032260037
0.028676341
0.025198465
0.021727513
0.018394743
0.015360609
0.012677391
0.0103571
0.0083924415
0.0067494273
0.0053813708
0.0042430417
0.003295438
0.0025061307
0.0018483727
0.001300086
0.0008430073
0.00046198775
0.00014443864
0.044113914
0.044386581
0.045272692
0.046804193
0.047859985
0.04717944
0.045235104
0.043022522
0.040858632
0.038566854
0.035738869
0.032232713
0.028649699
0.025172031
0.021701763
0.018371236
0.015340106
0.012660076
0.010342882
0.0083810137
0.0067403501
0.0053742217
0.004237463
0.0032911419
0.0025028855
0.0018459918
0.0012984187
0.00084192975
0.00046139868
0.00014425494
0.044096488
0.044367898
0.045248255
0.046775068
0.047836172
0.047162151
0.045216967
0.043000781
0.040833739
0.038540042
0.035711461
0.032205409
0.028623062
0.025145605
0.021676037
0.018347757
0.015319629
0.012642789
0.010328684
0.0083696066
0.006731289
0.0053670834
0.0042318919
0.0032868516
0.0024996447
0.001843614
0.0012967534
0.00084085354
0.00046081051
0.0001440715
0.044079091
0.044349243
0.045223851
0.046745961
0.047812322
0.047144872
0.045198835
0.042979048
0.040808866
0.038513252
0.035684079
0.032178116
0.028596432
0.025119195
0.021650344
0.018324303
0.015299177
0.012625528
0.010314518
0.0083582216
0.0067222466
0.0053599611
0.0042263347
0.0032825712
0.0024964122
0.0018412421
0.0012950923
0.00083978007
0.00046022396
0.00014388856
0.044061722
0.044330614
0.045199449
0.046716813
0.047788425
0.047127591
0.04518076
0.042957359
0.040784027
0.038486482
0.035656717
0.032150849
0.028569826
0.025092801
0.021624666
0.018300877
0.015278756
0.012608292
0.010300376
0.0083468552
0.0067132188
0.0053528502
0.0042207865
0.0032782981
0.0024931844
0.0018388741
0.0012934335
0.00083870802
0.00045963817
0.00014370584
0.044044378
0.04431201
0.045175067
0.046687704
0.047764507
0.047110319
0.045162697
0.042935709
0.040759213
0.038459735
0.035629375
0.032123594
0.028543228
0.02506642
0.021599004
0.01827748
0.015258366
0.012591083
0.010286257
0.0083355089
0.0067042081
0.0053457529
0.0042152483
0.0032740329
0.0024899622
0.0018365106
0.0012917778
0.00083763809
0.00045905342
0.00014352345
0.044027056
0.044293429
0.045150728
0.046658554
0.047740541
0.04709306
0.045144695
0.042914074
0.040734422
0.038433011
0.035602053
0.032096353
0.028516633
0.025040046
0.021573372
0.018254107
0.015238
0.012573904
0.010272157
0.0083241799
0.0066952101
0.0053386661
0.004209718
0.0032697736
0.0024867442
0.0018341503
0.0012901245
0.00083656967
0.00045846938
0.00014334128
0.044009755
0.044274871
0.045126428
0.046629426
0.04771655
0.047075804
0.045126709
0.042892472
0.040709656
0.03840631
0.035574754
0.03206913
0.028490042
0.02501369
0.021547764
0.018230761
0.01521766
0.012556751
0.010258083
0.0083128755
0.0066862315
0.005331594
0.0042041998
0.0032655245
0.0024835345
0.0018317957
0.0012884756
0.00083550408
0.00045788685
0.00014315959
0.043992473
0.044256331
0.045102164
0.046600303
0.047692527
0.047058563
0.045108785
0.04287093
0.040684915
0.038379634
0.035547484
0.032041918
0.028463469
0.024987347
0.021522172
0.01820744
0.015197347
0.012539622
0.010244036
0.0083015887
0.0066772677
0.0053245333
0.0041986892
0.003261281
0.0024803291
0.001829444
0.0012868287
0.00083443972
0.00045730506
0.00014297815
0.043975206
0.044237807
0.045077928
0.046571156
0.047668464
0.04704133
0.045090881
0.042849406
0.0406602
0.038352986
0.035520236
0.03201473
0.028436908
0.024961016
0.021496595
0.018184149
0.015177065
0.012522514
0.01023001
0.0082903192
0.0066683177
0.0053174838
0.0041931888
0.0032570441
0.0024771293
0.001827096
0.0012851844
0.00083337706
0.00045672433
0.00014279703
0.043957954
0.044219295
0.045053697
0.046542053
0.047644383
0.047024107
0.045073043
0.042827908
0.040635513
0.038326363
0.035493013
0.031987554
0.028410349
0.02493469
0.021471052
0.01816088
0.015156807
0.012505437
0.010216003
0.0082790653
0.0066593801
0.0053104432
0.0041876953
0.003252813
0.0024739333
0.0018247512
0.0012835419
0.0008323156
0.00045614433
0.00014261611
0.043940715
0.044200797
0.045029496
0.04651291
0.047620261
0.047006907
0.04505523
0.042806487
0.040610856
0.038299767
0.035465814
0.031960392
0.028383793
0.024908385
0.021445529
0.018137638
0.015136574
0.012488387
0.01020202
0.0082678343
0.0066504615
0.0053034194
0.0041822145
0.0032485922
0.002470745
0.0018224125
0.0012819037
0.00083125692
0.00045556583
0.00014243567
0.043923486
0.044182314
0.045005338
0.046483811
0.047596119
0.046989712
0.045037484
0.04278509
0.040586231
0.038273199
0.035438637
0.031933248
0.028357247
0.024882093
0.021420021
0.018114421
0.015116367
0.01247136
0.010188059
0.0082566221
0.0066415554
0.0052964051
0.004176741
0.0032443768
0.0024675603
0.0018200767
0.0012802675
0.00083019956
0.00045498789
0.0001422554
0.043906265
0.044163842
0.044981219
0.046454702
0.047571947
0.046972534
0.045019767
0.042763719
0.040561646
0.038246661
0.035411481
0.031906115
0.028330723
0.024855813
0.021394535
0.018091236
0.01509619
0.012454355
0.010174124
0.0082454277
0.0066326652
0.0052894013
0.0041712756
0.0032401681
0.0024643807
0.0018177444
0.001278634
0.00082914396
0.0004544108
0.0001420754
0.04388905
0.04414538
0.044957137
0.046425598
0.047547742
0.046955379
0.045002119
0.042742426
0.040537106
0.038220153
0.035384345
0.031879006
0.028304203
0.024829541
0.021369082
0.018068071
0.01507604
0.012437375
0.010160207
0.0082342481
0.0066237866
0.0052824075
0.0041658167
0.0032359643
0.0024612053
0.0018154147
0.0012770025
0.00082808953
0.00045383435
0.0001418956
0.04387184
0.04412692
0.044933082
0.046396532
0.047523519
0.04693823
0.044984502
0.042721169
0.040512601
0.038193676
0.035357236
0.031851911
0.028277689
0.024803293
0.021343646
0.018044936
0.015055914
0.012420427
0.010146315
0.0082230897
0.0066149256
0.0052754285
0.0041603716
0.0032317702
0.0024580379
0.0018130907
0.0012753751
0.00082703787
0.00045325957
0.00014171634
0.043854632
0.044108464
0.044909034
0.046367429
0.04749926
0.046921104
0.044966956
0.04269994
0.040488132
0.038167231
0.035330152
0.031824828
0.028251184
0.024777059
0.021318226
0.018021824
0.015035812
0.012403502
0.010132441
0.0082119486
0.0066060779
0.0052684583
0.0041549329
0.0032275812
0.0024548741
0.0018107693
0.0012737493
0.00082598719
0.00045268543
0.00014153726
0.043837427
0.044090014
0.044885018
0.046338385
0.047474983
0.046903995
0.044949445
0.042678786
0.040463699
0.038140817
0.03530309
0.031797765
0.028224704
0.024750836
0.021292835
0.017998743
0.015015741
0.012386597
0.01011859
0.0082008248
0.0065972424
0.0052614994
0.0041495021
0.0032233987
0.0024517146
0.0018084517
0.0012721258
0.000824938
0.00045211213
0.00014135844
0.043820221
0.044071571
0.044861044
0.046309317
0.047450678
0.046886898
0.044932007
0.042657678
0.040439305
0.038114437
0.035276056
0.031770715
0.028198235
0.024724625
0.02126747
0.017975684
0.014995696
0.012369714
0.010104762
0.0081897175
0.0065884196
0.0052545488
0.0041440779
0.0032192209
0.0024485582
0.0018061365
0.0012705039
0.00082388988
0.00045153932
0.00014117976
0.043803013
0.044053132
0.044837111
0.046280278
0.047426343
0.046869826
0.044914604
0.042636601
0.040414949
0.03808809
0.035249045
0.031743687
0.028171772
0.024698435
0.021242124
0.017952654
0.014975676
0.012352864