/*--------------------------------*- C++ -*----------------------------------*\
| =========                 |                                                 |
| \\      /  F ield         | OpenFOAM: The Open Source CFD Toolbox           |
|  \\    /   O peration     | Version:  v2012                                 |
|   \\  /    A nd           | Website:  www.openfoam.com                      |
|    \\/     M anipulation  |                                                 |
\*---------------------------------------------------------------------------*/
FoamFile
{
    version     2.0;
    format      ascii;
    class       volScalarField;
    location    "750";
    object      nut;
}
// * * * * * * * * * * * * * * * * * * * * * * * * * * * * * * * * * * * * * //

dimensions      [0 2 -1 0 0 0 0];


internalField   nonuniform List<scalar> 
24000
(
2.581961e-05
1.0024578e-05
8.13387e-06
1.086432e-05
1.2936077e-05
1.4401291e-05
1.5013047e-05
1.4963122e-05
1.5287999e-05
1.2384008e-05
7.9586535e-06
6.0438173e-06
5.8027727e-06
4.8361318e-06
3.1818872e-06
2.0789807e-06
1.3019249e-06
7.075176e-07
3.0101517e-07
1.0947508e-07
3.5204106e-08
1.0259416e-08
2.7282615e-09
6.5400396e-10
1.3686806e-10
2.3623962e-11
3.0893311e-12
3.2831857e-13
1.1518849e-13
1.2483684e-13
2.5878423e-05
9.9047327e-06
8.0679661e-06
1.0816413e-05
1.2887552e-05
1.4362158e-05
1.4983129e-05
1.4937959e-05
1.5257043e-05
1.2360969e-05
7.9445609e-06
6.0324456e-06
5.7899405e-06
4.8165385e-06
3.1692744e-06
2.0704151e-06
1.2958882e-06
7.0388527e-07
2.9926882e-07
1.0878891e-07
3.4973421e-08
1.0190532e-08
2.7097103e-09
6.4953016e-10
1.3592925e-10
2.3461391e-11
3.0675687e-12
3.2543404e-13
1.1368881e-13
1.231633e-13
2.5938119e-05
9.9812768e-06
8.0630589e-06
1.0771243e-05
1.2846457e-05
1.430768e-05
1.4921467e-05
1.4868353e-05
1.5182965e-05
1.2336094e-05
7.9288094e-06
6.0204162e-06
5.7766419e-06
4.7998277e-06
3.1575821e-06
2.0623539e-06
1.2901954e-06
6.9957167e-07
2.9710457e-07
1.0791553e-07
3.4676438e-08
1.0101738e-08
2.6858615e-09
6.4379629e-10
1.3472937e-10
2.3255089e-11
3.0414383e-12
3.2360026e-13
1.1384926e-13
1.2341891e-13
2.5998364e-05
1.0003966e-05
8.0373576e-06
1.0726617e-05
1.2806826e-05
1.4262579e-05
1.4874979e-05
1.4821293e-05
1.5131355e-05
1.2310548e-05
7.9127081e-06
6.0085142e-06
5.7636263e-06
4.7815407e-06
3.1455492e-06
2.05451e-06
1.2849406e-06
6.960635e-07
2.954533e-07
1.0727906e-07
3.4466017e-08
1.0039787e-08
2.6693568e-09
6.3984577e-10
1.3390476e-10
2.3113296e-11
3.0231646e-12
3.2192208e-13
1.1348325e-13
1.2304523e-13
2.6058794e-05
1.0024062e-05
8.0072421e-06
1.0682281e-05
1.2767094e-05
1.4218212e-05
1.4830202e-05
1.477587e-05
1.5080755e-05
1.2284574e-05
7.8962122e-06
5.996515e-06
5.7506227e-06
4.7638763e-06
3.1337798e-06
2.0467239e-06
1.2796327e-06
6.9238287e-07
2.93687e-07
1.065874e-07
3.4234831e-08
9.9712646e-09
2.6510318e-09
6.3545015e-10
1.3298614e-10
2.2955284e-11
3.0028705e-12
3.2014968e-13
1.1318723e-13
1.2275767e-13
2.6119265e-05
1.0036005e-05
7.9750284e-06
1.0638222e-05
1.2727485e-05
1.4174863e-05
1.478703e-05
1.4732248e-05
1.5032464e-05
1.2258348e-05
7.8794917e-06
5.9844776e-06
5.7376631e-06
4.7462046e-06
3.1219649e-06
2.0388875e-06
1.2742927e-06
6.886977e-07
2.9192297e-07
1.0589813e-07
3.4004798e-08
9.9031483e-09
2.6328251e-09
6.3108432e-10
1.3207394e-10
2.279838e-11
2.9826992e-12
3.1836279e-13
1.1286244e-13
1.2243655e-13
2.6179665e-05
1.0043551e-05
7.9422494e-06
1.0594422e-05
1.2688022e-05
1.4132041e-05
1.4744573e-05
1.4689388e-05
1.4985143e-05
1.2231978e-05
7.862632e-06
5.9724174e-06
5.7247376e-06
4.7285917e-06
3.1101512e-06
2.0310308e-06
1.2689336e-06
6.8499416e-07
2.9014947e-07
1.0520498e-07
3.3773418e-08
9.8346197e-09
2.6145054e-09
6.2669093e-10
1.311559e-10
2.2640463e-11
2.9623941e-12
3.1656062e-13
1.125314e-13
1.2210856e-13
2.6239922e-05
1.0048183e-05
7.9093515e-06
1.0550872e-05
1.2648686e-05
1.4089551e-05
1.4702537e-05
1.4647011e-05
1.4938278e-05
1.2205534e-05
7.8456925e-06
5.96035e-06
5.7118442e-06
4.7110275e-06
3.098347e-06
2.023169e-06
1.2635701e-06
6.8128833e-07
2.8837578e-07
1.0451203e-07
3.354215e-08
9.7661302e-09
2.5961965e-09
6.2230003e-10
1.3023835e-10
2.2482624e-11
2.9420948e-12
3.147545e-13
1.1219511e-13
1.2177448e-13
2.6299986e-05
1.0051146e-05
7.8765688e-06
1.050757e-05
1.2609472e-05
1.4047289e-05
1.466077e-05
1.4604953e-05
1.4892008e-05
1.2179066e-05
7.8287128e-06
5.9482851e-06
5.6989804e-06
4.6935164e-06
3.0865649e-06
2.015314e-06
1.2582115e-06
6.7758772e-07
2.8660574e-07
1.0382082e-07
3.3311526e-08
9.6978383e-09
2.5779408e-09
6.1792188e-10
1.2932345e-10
2.2325234e-11
2.9218501e-12
3.1295e-13
1.1185587e-13
1.2143685e-13
2.6359822e-05
1.0053184e-05
7.8440205e-06
1.0464514e-05
1.2570379e-05
1.4005201e-05
1.4619196e-05
1.4563128e-05
1.4846262e-05
1.2152602e-05
7.8117187e-06
5.9362289e-06
5.6861435e-06
4.6760631e-06
3.0748132e-06
2.0074733e-06
1.2528635e-06
6.7389721e-07
2.8484189e-07
1.0313242e-07
3.3081907e-08
9.6298525e-09
2.5597675e-09
6.1356344e-10
1.2841266e-10
2.2168545e-11
2.9016928e-12
3.1115072e-13
1.1151504e-13
1.2109716e-13
2.6419407e-05
1.0054755e-05
7.8117752e-06
1.0421705e-05
1.2531411e-05
1.3963255e-05
1.457777e-05
1.4521494e-05
1.4800808e-05
1.2126161e-05
7.7947274e-06
5.9241852e-06
5.6733315e-06
4.6586706e-06
3.0630965e-06
1.9996521e-06
1.2475304e-06
6.7022034e-07
2.8308607e-07
1.0244757e-07
3.2853554e-08
9.5622516e-09
2.5416978e-09
6.0922985e-10
1.2750704e-10
2.2012741e-11
2.8816472e-12
3.0935921e-13
1.1117348e-13
1.2075633e-13
2.6478722e-05
1.0056177e-05
7.7798751e-06
1.0379147e-05
1.2492565e-05
1.3921435e-05
1.4536464e-05
1.4480016e-05
1.4755535e-05
1.2099757e-05
7.7777502e-06
5.9121563e-06
5.6605432e-06
4.6413405e-06
3.0514176e-06
1.9918533e-06
1.2422143e-06
6.66559e-07
2.8133923e-07
1.0176666e-07
3.2626591e-08
9.4950722e-09
2.5237415e-09
6.0492341e-10
1.2660707e-10
2.1857905e-11
2.8617239e-12
3.0757666e-13
1.1083165e-13
1.2041488e-13
2.6537754e-05
1.0057699e-05
7.7483529e-06
1.0336842e-05
1.245384e-05
1.3879725e-05
1.4495259e-05
1.4438671e-05
1.4710392e-05
1.2073399e-05
7.760795e-06
5.9001433e-06
5.6477773e-06
4.624072e-06
3.0397789e-06
1.9840788e-06
1.236917e-06
6.6291465e-07
2.7960217e-07
1.0109e-07
3.2401133e-08
9.4283501e-09
2.5059086e-09
6.0064661e-10
1.2571328e-10
2.1704128e-11
2.8419354e-12
3.0580463e-13
1.104903e-13
1.2007361e-13
2.6596491e-05
1.0059445e-05
7.7172338e-06
1.0294794e-05
1.2415235e-05
1.3838126e-05
1.445415e-05
1.4397445e-05
1.4665379e-05
1.2047094e-05
7.7438668e-06
5.8881466e-06
5.635032e-06
4.6068651e-06
3.0281812e-06
1.9763298e-06
1.2316394e-06
6.5928808e-07
2.7787527e-07
1.0041777e-07
3.2177232e-08
9.3621005e-09
2.4882031e-09
5.9640038e-10
1.2482586e-10
2.1551444e-11
2.8222858e-12
3.0404353e-13
1.1014958e-13
1.197327e-13
2.6654923e-05
1.0061438e-05
7.6865402e-06
1.0253008e-05
1.2376755e-05
1.379663e-05
1.4413128e-05
1.4356325e-05
1.4620493e-05
1.2020847e-05
7.7269689e-06
5.8761664e-06
5.6223062e-06
4.5897214e-06
3.0166248e-06
1.9686072e-06
1.2263821e-06
6.5567997e-07
2.7615887e-07
9.975009e-08
3.195494e-08
9.2963391e-09
2.4706291e-09
5.9218575e-10
1.2394505e-10
2.1399892e-11
2.8027803e-12
3.0229395e-13
1.098097e-13
1.1939239e-13
2.6713041e-05
1.0063701e-05
7.6562894e-06
1.0211487e-05
1.2338402e-05
1.3755236e-05
1.4372187e-05
1.4315308e-05
1.4575734e-05
1.1994661e-05
7.7101035e-06
5.8642024e-06
5.6095989e-06
4.572638e-06
3.0051098e-06
1.9609109e-06
1.2211452e-06
6.5209038e-07
2.74453e-07
9.9086969e-08
3.1734252e-08
9.2310635e-09
2.4531861e-09
5.880026e-10
1.230708e-10
2.1249467e-11
2.7834186e-12
3.005559e-13
1.0947072e-13
1.1905272e-13
2.6770838e-05
1.006631e-05
7.6265011e-06
1.0170237e-05
1.2300173e-05
1.3713939e-05
1.433132e-05
1.4274384e-05
1.4531095e-05
1.1968538e-05
7.6932721e-06
5.8522538e-06
5.596909e-06
4.5556153e-06
2.9936364e-06
1.9532414e-06
1.2159292e-06
6.4851964e-07
2.7275785e-07
9.8428493e-08
3.15152e-08
9.1662853e-09
2.4358774e-09
5.8385174e-10
1.2220331e-10
2.1100203e-11
2.7642051e-12
2.9883009e-13
1.0913305e-13
1.1871417e-13
2.6828306e-05
1.0069327e-05
7.5971942e-06
1.0129263e-05
1.2262068e-05
1.3672736e-05
1.4290527e-05
1.4233552e-05
1.4486568e-05
1.1942481e-05
7.6764753e-06
5.8403201e-06
5.584235e-06
4.5386516e-06
2.9822041e-06
1.9455984e-06
1.2107338e-06
6.4496772e-07
2.7107336e-07
9.7774623e-08
3.1297768e-08
9.1019982e-09
2.4187011e-09
5.7973265e-10
1.2134245e-10
2.0952077e-11
2.7451369e-12
2.9711615e-13
1.0879652e-13
1.1837656e-13
2.6885441e-05
1.0072751e-05
7.5683872e-06
1.0088571e-05
1.222409e-05
1.3631633e-05
1.4249811e-05
1.4192811e-05
1.4442148e-05
1.1916489e-05
7.6597135e-06
5.8284005e-06
5.5715756e-06
4.5217477e-06
2.9708125e-06
1.937982e-06
1.2055591e-06
6.4143464e-07
2.6939956e-07
9.7125371e-08
3.1081961e-08
9.038204e-09
2.4016577e-09
5.7564554e-10
1.2048826e-10
2.0805097e-11
2.7262151e-12
2.9541423e-13
1.0846121e-13
1.1803996e-13
2.6942239e-05
1.007657e-05
7.5400954e-06
1.0048166e-05
1.2186246e-05
1.3590624e-05
1.4209165e-05
1.4152156e-05
1.4397834e-05
1.1890563e-05
7.6429869e-06
5.8164942e-06
5.5589302e-06
4.504901e-06
2.9594613e-06
1.9303917e-06
1.2004048e-06
6.3792016e-07
2.6773627e-07
9.6480662e-08
3.0867753e-08
8.9748943e-09
2.3847451e-09
5.7158985e-10
1.1964064e-10
2.0659244e-11
2.7074372e-12
2.9372411e-13
1.081271e-13
1.1770437e-13
2.6998695e-05
1.0080833e-05
7.5123347e-06
1.0008055e-05
1.2148533e-05
1.3549709e-05
1.4168587e-05
1.4111586e-05
1.4353623e-05
1.1864705e-05
7.6262952e-06
5.8046e-06
5.5462975e-06
4.4881107e-06
2.9481501e-06
1.9228278e-06
1.1952712e-06
6.3442449e-07
2.6608365e-07
9.5840569e-08
3.0655168e-08
8.9120776e-09
2.3679655e-09
5.675662e-10
1.1879972e-10
2.0514542e-11
2.6888065e-12
2.9204631e-13
1.0779452e-13
1.1737014e-13
2.7054808e-05
1.0085622e-05
7.4851229e-06
9.9682436e-06
1.211095e-05
1.3508889e-05
1.4128078e-05
1.4071096e-05
1.4309507e-05
1.1838913e-05
7.6096382e-06
5.7927171e-06
5.5336761e-06
4.4713764e-06
2.9368779e-06
1.9152896e-06
1.1901577e-06
6.3094735e-07
2.6444151e-07
9.520498e-08
3.0444165e-08
8.84974e-09
2.3513151e-09
5.6357358e-10
1.1796528e-10
2.0370954e-11
2.6703181e-12
2.9038027e-13
1.0746321e-13
1.1703701e-13
2.7110578e-05
1.0090971e-05
7.4584791e-06
9.9287378e-06
1.2073498e-05
1.3468162e-05
1.408764e-05
1.4030689e-05
1.4265485e-05
1.1813188e-05
7.5930153e-06
5.7808446e-06
5.521065e-06
4.4546963e-06
2.9256446e-06
1.9077769e-06
1.1850644e-06
6.2748863e-07
2.6280978e-07
9.4573887e-08
3.0234743e-08
8.7878825e-09
2.3347943e-09
5.5961215e-10
1.1713736e-10
2.0228489e-11
2.6519734e-12
2.8872622e-13
1.0713333e-13
1.1670513e-13
2.7166006e-05
1.0096846e-05
7.4324195e-06
9.8895443e-06
1.2036184e-05
1.3427531e-05
1.4047269e-05
1.3990363e-05
1.4221558e-05
1.1787529e-05
7.5764262e-06
5.7689815e-06
5.5084633e-06
4.4380704e-06
2.9144492e-06
1.9002892e-06
1.1799909e-06
6.2404809e-07
2.6118832e-07
9.394722e-08
3.0026876e-08
8.7264962e-09
2.3184007e-09
5.5568128e-10
1.1631583e-10
2.0087121e-11
2.6337691e-12
2.8708382e-13
1.0680476e-13
1.163744e-13
2.7221093e-05
1.0103252e-05
7.4069596e-06
9.8506695e-06
1.1999012e-05
1.3386991e-05
1.4006965e-05
1.3950117e-05
1.4177723e-05
1.1761938e-05
7.5598701e-06
5.7571266e-06
5.4958698e-06
4.4214956e-06
2.9032912e-06
1.8928265e-06
1.1749373e-06
6.2062587e-07
2.5957725e-07
9.3325034e-08
2.9820584e-08
8.6655878e-09
2.3021361e-09
5.5178147e-10
1.1550079e-10
1.9946868e-11
2.6157076e-12
2.8545349e-13
1.0647778e-13
1.1604512e-13
2.7275842e-05
1.0110274e-05
7.3821617e-06
9.8121201e-06
1.196198e-05
1.3346548e-05
1.3966729e-05
1.3909949e-05
1.4133975e-05
1.1736412e-05
7.5433463e-06
5.7452789e-06
5.4832833e-06
4.4049731e-06
2.8921696e-06
1.8853879e-06
1.1699028e-06
6.1722147e-07
2.5797625e-07
9.2707182e-08
2.9615812e-08
8.6051397e-09
2.2859957e-09
5.4791152e-10
1.14692e-10
1.9807688e-11
2.5977835e-12
2.8383461e-13
1.0615216e-13
1.1571703e-13
2.733026e-05
1.0117993e-05
7.3579202e-06
9.7739029e-06
1.1925088e-05
1.3306198e-05
1.3926562e-05
1.3869858e-05
1.4090313e-05
1.1710952e-05
7.5268542e-06
5.7334374e-06
5.4707024e-06
4.3885001e-06
2.8810841e-06
1.877973e-06
1.1648873e-06
6.1383476e-07
2.5638528e-07
9.2093659e-08
2.9412564e-08
8.5451545e-09
2.2699803e-09
5.4407175e-10
1.1388953e-10
1.9669596e-11
2.5799987e-12
2.8222744e-13
1.0582801e-13
1.1539025e-13
2.7384354e-05
1.0126406e-05
7.3343643e-06
9.7360241e-06
1.1888339e-05
1.3265942e-05
1.3886462e-05
1.3829847e-05
1.4046736e-05
1.1685557e-05
7.5103927e-06
5.7216011e-06
5.4581266e-06
4.3720765e-06
2.8700335e-06
1.8705814e-06
1.1598904e-06
6.1046546e-07
2.5480416e-07
9.1484382e-08
2.9210806e-08
8.4856215e-09
2.2540871e-09
5.4026133e-10
1.1309319e-10
1.9532561e-11
2.562349e-12
2.8063149e-13
1.0550513e-13
1.1506459e-13
2.7438132e-05
1.0135484e-05
7.3114768e-06
9.6984911e-06
1.1851739e-05
1.3225784e-05
1.3846431e-05
1.3789913e-05
1.4003243e-05
1.1660226e-05
7.493961e-06
5.7097689e-06
5.4455547e-06
4.3556999e-06
2.8590173e-06
1.8632129e-06
1.1549121e-06
6.0711352e-07
2.5323291e-07
9.0879364e-08
2.9010546e-08
8.4265431e-09
2.2383166e-09
5.3648047e-10
1.1230305e-10
1.9396591e-11
2.5448359e-12
2.7904707e-13
1.0518376e-13
1.1474029e-13
2.7491603e-05
1.0145256e-05
7.2892729e-06
9.6613103e-06
1.1815293e-05
1.3185718e-05
1.3806468e-05
1.3750057e-05
1.3959831e-05
1.163496e-05
7.4775584e-06
5.6979397e-06
5.4329853e-06
4.3393706e-06
2.8480349e-06
1.8558665e-06
1.1499515e-06
6.0377834e-07
2.5167116e-07
9.0278432e-08
2.881172e-08
8.3678987e-09
2.2226633e-09
5.327278e-10
1.1151879e-10
1.9261634e-11
2.5274528e-12
2.7747353e-13
1.0486369e-13
1.1441712e-13
2.7544781e-05
1.0155823e-05
7.2677679e-06
9.624489e-06
1.1778997e-05
1.3145751e-05
1.3766576e-05
1.3710277e-05
1.3916497e-05
1.1609757e-05
7.4611841e-06
5.6861127e-06
5.4204174e-06
4.3230872e-06
2.8370855e-06
1.8485421e-06
1.1450089e-06
6.0046e-07
2.5011895e-07
8.9681619e-08
2.8614342e-08
8.3096943e-09
2.2071289e-09
5.2900378e-10
1.1074054e-10
1.912771e-11
2.510202e-12
2.759112e-13
1.0454509e-13
1.1409529e-13
2.7597679e-05
1.0167248e-05
7.2469784e-06
9.5880337e-06
1.174285e-05
1.3105877e-05
1.3726751e-05
1.3670575e-05
1.3873245e-05
1.1584617e-05
7.4448373e-06
5.6742871e-06
5.4078503e-06
4.3068477e-06
2.826168e-06
1.8412394e-06
1.1400838e-06
5.9715832e-07
2.4857619e-07
8.9088865e-08
2.8418387e-08
8.251921e-09
2.1917108e-09
5.2530776e-10
1.0996814e-10
1.8994793e-11
2.4930803e-12
2.7435966e-13
1.042278e-13
1.1377461e-13
2.7650312e-05
1.01795e-05
7.2269209e-06
9.5519512e-06
1.170686e-05
1.3066101e-05
1.3686998e-05
1.3630952e-05
1.3830074e-05
1.155954e-05
7.4285174e-06
5.6624619e-06
5.3952833e-06
4.2906518e-06
2.8152822e-06
1.8339579e-06
1.135176e-06
5.9387319e-07
2.4704284e-07
8.8500177e-08
2.8223862e-08
8.1945821e-09
2.1764101e-09
5.2164007e-10
1.0920168e-10
1.8862899e-11
2.4760897e-12
2.7281927e-13
1.0391206e-13
1.1345532e-13
2.7702698e-05
1.0192542e-05
7.2076069e-06
9.5162482e-06
1.1671035e-05
1.3026427e-05
1.3647319e-05
1.3591408e-05
1.3786982e-05
1.1534524e-05
7.4122236e-06
5.6506363e-06
5.3827148e-06
4.274498e-06
2.8044272e-06
1.8266965e-06
1.1302847e-06
5.9060391e-07
2.4551851e-07
8.7915377e-08
2.8030701e-08
8.1376568e-09
2.1612212e-09
5.1799926e-10
1.0844085e-10
1.8731974e-11
2.4592236e-12
2.712894e-13
1.0359765e-13
1.131372e-13
2.7754856e-05
1.0206432e-05
7.1890503e-06
9.4809314e-06
1.1635376e-05
1.298685e-05
1.3607714e-05
1.3551944e-05
1.3743969e-05
1.150957e-05
7.395955e-06
5.6388094e-06
5.3701441e-06
4.2583867e-06
2.793602e-06
1.8194553e-06
1.1254101e-06
5.8735069e-07
2.4400332e-07
8.7334518e-08
2.7838926e-08
8.0811524e-09
2.1461461e-09
5.143859e-10
1.0768578e-10
1.8602043e-11
2.4424852e-12
2.6977044e-13
1.0328478e-13
1.1282047e-13
2.7806807e-05
1.0221286e-05
7.171263e-06
9.4460076e-06
1.159988e-05
1.2947374e-05
1.3568182e-05
1.3512562e-05
1.3701037e-05
1.1484677e-05
7.3797112e-06
5.6269806e-06
5.3575706e-06
4.242314e-06
2.7828057e-06
1.8122338e-06
1.1205516e-06
5.8411319e-07
2.4249706e-07
8.6757502e-08
2.7648499e-08
8.0250562e-09
2.1311812e-09
5.1079909e-10
1.0693626e-10
1.8473069e-11
2.4258697e-12
2.6826181e-13
1.0297314e-13
1.1250478e-13
2.7858575e-05
1.0237171e-05
7.1542605e-06
9.4114832e-06
1.1564548e-05
1.2907994e-05
1.3528723e-05
1.3473262e-05
1.3658188e-05
1.1459844e-05
7.3634913e-06
5.6151493e-06
5.3449936e-06
4.2262819e-06
2.7720386e-06
1.8050314e-06
1.115709e-06
5.8089116e-07
2.4099965e-07
8.6184313e-08
2.7459418e-08
7.9693695e-09
2.1163271e-09
5.0723902e-10
1.0619235e-10
1.8345061e-11
2.4093785e-12
2.6676378e-13
1.0266295e-13
1.1219036e-13
2.7910183e-05
1.0254065e-05
7.138054e-06
9.3773644e-06
1.152939e-05
1.2868719e-05
1.3489345e-05
1.3434045e-05
1.3615419e-05
1.143507e-05
7.3472948e-06
5.6033147e-06
5.3324118e-06
4.2102882e-06
2.7612993e-06
1.7978471e-06
1.1108815e-06
5.7768391e-07
2.3951068e-07
8.5614761e-08
2.7271614e-08
7.9140697e-09
2.1015775e-09
5.0370413e-10
1.0545371e-10
1.8217963e-11
2.3930042e-12
2.6527565e-13
1.0235403e-13
1.1187701e-13
2.796166e-05
1.0271949e-05
7.1226512e-06
9.3436578e-06
1.1494414e-05
1.2829551e-05
1.3450048e-05
1.3394912e-05
1.3572732e-05
1.1410356e-05
7.331121e-06
5.5914764e-06
5.3198247e-06
4.1943326e-06
2.7505869e-06
1.7906815e-06
1.1060694e-06
5.7449186e-07
2.3803038e-07
8.5048947e-08
2.7085123e-08
7.8591685e-09
2.0869358e-09
5.0019525e-10
1.0472054e-10
1.8091806e-11
2.3767511e-12
2.6379796e-13
1.0204666e-13
1.1156503e-13
2.8013033e-05
1.029089e-05
7.1080637e-06
9.3103695e-06
1.1459618e-05
1.2790483e-05
1.3410831e-05
1.3355865e-05
1.3530131e-05
1.1385701e-05
7.3149695e-06
5.5796339e-06
5.3072321e-06
4.1784117e-06
2.7399009e-06
1.7835336e-06
1.1012723e-06
5.7131476e-07
2.3655858e-07
8.4486787e-08
2.6899913e-08
7.8046554e-09
2.0723988e-09
4.967116e-10
1.0399265e-10
1.7966563e-11
2.3606155e-12
2.6233027e-13
1.0174059e-13
1.1125412e-13
2.8064334e-05
1.0311003e-05
7.0943016e-06
9.2775059e-06
1.1424998e-05
1.2751516e-05
1.3371698e-05
1.3316905e-05
1.3487618e-05
1.1361105e-05
7.2988399e-06
5.5677869e-06
5.2946333e-06
4.1625285e-06
2.7292415e-06
1.7764031e-06
1.09649e-06
5.6815233e-07
2.350952e-07
8.3928275e-08
2.6715987e-08
7.750533e-09
2.0579677e-09
4.9325355e-10
1.0327014e-10
1.784225e-11
2.3446002e-12
2.60873e-13
1.0143608e-13
1.1094454e-13
2.8115594e-05
1.0332351e-05
7.0813802e-06
9.2450725e-06
1.1390552e-05
1.2712643e-05
1.3332651e-05
1.3278035e-05
1.344519e-05
1.1336568e-05
7.2827316e-06
5.5559349e-06
5.2820274e-06
4.146681e-06
2.7186071e-06
1.7692891e-06
1.0917215e-06
5.6500379e-07
2.3363979e-07
8.33732e-08
2.6533267e-08
7.6967764e-09
2.0436355e-09
4.8981935e-10
1.0255264e-10
1.7718802e-11
2.3286965e-12
2.5942534e-13
1.011329e-13
1.1063603e-13
2.8166849e-05
1.0354903e-05
7.0693079e-06
9.2130751e-06
1.1356289e-05
1.2673867e-05
1.3293693e-05
1.323926e-05
1.3402854e-05
1.1312088e-05
7.2666443e-06
5.5440778e-06
5.269414e-06
4.1308678e-06
2.7079972e-06
1.7621918e-06
1.0869671e-06
5.6186953e-07
2.3219257e-07
8.2821657e-08
2.6351789e-08
7.6433969e-09
2.0294053e-09
4.8640979e-10
1.0184031e-10
1.7596249e-11
2.3129087e-12
2.579878e-13
1.0083126e-13
1.1032882e-13
2.8218134e-05
1.037863e-05
7.0580918e-06
9.1815191e-06
1.1322216e-05
1.2635191e-05
1.3254823e-05
1.3200584e-05
1.3360615e-05
1.1287667e-05
7.2505776e-06
5.5322155e-06
5.2567932e-06
4.1150871e-06
2.6974117e-06
1.7551105e-06
1.0822264e-06
5.5874923e-07
2.307533e-07
8.2273538e-08
2.6171511e-08
7.5903811e-09
2.0152734e-09
4.8302397e-10
1.0113296e-10
1.7474558e-11
2.2972321e-12
2.5655975e-13
1.0053085e-13
1.1002252e-13
2.8269487e-05
1.0403589e-05
7.0477363e-06
9.1504101e-06
1.1288297e-05
1.2596625e-05
1.3216063e-05
1.3162007e-05
1.3318471e-05
1.1263304e-05
7.2345313e-06
5.5203478e-06
5.2441648e-06
4.0993415e-06
2.6868504e-06
1.7480449e-06
1.0774993e-06
5.5564271e-07
2.2932196e-07
8.1728851e-08
2.5992442e-08
7.5377333e-09
2.0012413e-09
4.7966228e-10
1.004307e-10
1.7353746e-11
2.2816694e-12
2.5514168e-13
1.0023199e-13
1.0971746e-13
2.8320946e-05
1.0429895e-05
7.0382492e-06
9.1197537e-06
1.1254523e-05
1.2558182e-05
1.3177412e-05
1.3123528e-05
1.3276424e-05
1.1238998e-05
7.218505e-06
5.5084746e-06
5.2315281e-06
4.0836299e-06
2.6763118e-06
1.7409944e-06
1.0727849e-06
5.5254929e-07
2.2789815e-07
8.118741e-08
2.581451e-08
7.4854302e-09
1.9873024e-09
4.7632307e-10
9.9733162e-11
1.7233754e-11
2.2662129e-12
2.5373286e-13
9.9934487e-14
1.0941342e-13
2.8372555e-05
1.0457615e-05
7.0296434e-06
9.089555e-06
1.1220889e-05
1.2519854e-05
1.3138871e-05
1.3085151e-05
1.3234481e-05
1.121475e-05
7.2024984e-06
5.4965961e-06
5.2188832e-06
4.0679502e-06
2.6657959e-06
1.7339592e-06
1.0680836e-06
5.4946935e-07
2.2648209e-07
8.0649316e-08
2.5637755e-08
7.4334845e-09
1.9734603e-09
4.7300729e-10
9.9040556e-11
1.7114618e-11
2.2508677e-12
2.5233396e-13
9.963865e-14
1.0911069e-13
2.8424354e-05
1.048671e-05
7.0219231e-06
9.059819e-06
1.1187402e-05
1.2481652e-05
1.3100445e-05
1.3046883e-05
1.3192647e-05
1.1190561e-05
7.1865115e-06
5.4847126e-06
5.2062308e-06
4.0523027e-06
2.6553027e-06
1.7269386e-06
1.063395e-06
5.464026e-07
2.2507358e-07
8.0114473e-08
2.546214e-08
7.381885e-09
1.9597119e-09
4.6971414e-10
9.8352711e-11
1.6996308e-11
2.23563e-12
2.5094448e-13
9.9344188e-14
1.0880892e-13
2.8476388e-05
1.0517131e-05
7.0150935e-06
9.0305502e-06
1.1154067e-05
1.2443575e-05
1.3062139e-05
1.3008724e-05
1.3150923e-05
1.116643e-05
7.1705443e-06
5.472824e-06
5.1935712e-06
4.0366884e-06
2.6448318e-06
1.7199325e-06
1.058719e-06
5.4334893e-07
2.2367259e-07
7.9582889e-08
2.5287673e-08
7.3306349e-09
1.9460583e-09
4.6644397e-10
9.7669711e-11
1.687884e-11
2.2205021e-12
2.4956482e-13
9.9051368e-14
1.0850836e-13
2.8528703e-05
1.0548914e-05
7.0091551e-06
9.0017533e-06
1.1120889e-05
1.2405624e-05
1.3023951e-05
1.2970677e-05
1.3109313e-05
1.1142358e-05
7.1545967e-06
5.4609304e-06
5.1809046e-06
4.0211061e-06
2.6343822e-06
1.7129403e-06
1.0540547e-06
5.4030757e-07
2.222787e-07
7.9054358e-08
2.5114276e-08
7.2797087e-09
1.9324923e-09
4.6319496e-10
9.6991166e-11
1.6762146e-11
2.2054751e-12
2.481941e-13
9.8759935e-14
1.0820874e-13
2.8581344e-05
1.0582174e-05
7.004114e-06
8.9734326e-06
1.1087859e-05
1.2367801e-05
1.298588e-05
1.2932745e-05
1.3067823e-05
1.1118345e-05
7.1386686e-06
5.4490323e-06
5.1682308e-06
4.0055532e-06
2.6239542e-06
1.7059621e-06
1.0494026e-06
5.372789e-07
2.2089212e-07
7.8528986e-08
2.4941987e-08
7.2291196e-09
1.9190176e-09
4.5996806e-10
9.6317284e-11
1.6646262e-11
2.1905539e-12
2.4683298e-13
9.8470214e-14
1.0791034e-13
2.8634359e-05
1.0616999e-05
6.9999768e-06
8.9455923e-06
1.1054978e-05
1.2330101e-05
1.294793e-05
1.289493e-05
1.3026455e-05
1.1094392e-05
7.1227603e-06
5.4371297e-06
5.1555506e-06
3.9900316e-06
2.6135475e-06
1.6989975e-06
1.0447623e-06
5.3426274e-07
2.195127e-07
7.8006695e-08
2.4770779e-08
7.1788582e-09
1.9056317e-09
4.5676262e-10
9.5647927e-11
1.6531167e-11
2.1757358e-12
2.4548104e-13
9.8181959e-14
1.0761287e-13
2.8687799e-05
1.0653373e-05
6.9967488e-06
8.9182355e-06
1.1022247e-05
1.2292532e-05
1.2910103e-05
1.2857234e-05
1.2985212e-05
1.10705e-05
7.1068717e-06
5.425223e-06
5.1428642e-06
3.9745421e-06
2.6031622e-06
1.6920467e-06
1.040134e-06
5.3125907e-07
2.1814047e-07
7.7487511e-08
2.4600664e-08
7.1289293e-09
1.892336e-09
4.5357905e-10
9.4983189e-11
1.6416877e-11
2.161023e-12
2.4413871e-13
9.7895428e-14
1.0731656e-13
2.8741713e-05
1.0691236e-05
6.9944329e-06
8.8913662e-06
1.0989671e-05
1.2255091e-05
1.2872399e-05
1.2819661e-05
1.29441e-05
1.1046669e-05
7.091003e-06
5.4133123e-06
5.1301717e-06
3.9590839e-06
2.5927974e-06
1.6851091e-06
1.0355167e-06
5.282672e-07
2.1677501e-07
7.6971235e-08
2.4431566e-08
7.0793084e-09
1.8791235e-09
4.504156e-10
9.4322692e-11
1.6303326e-11
2.1464075e-12
2.4280522e-13
9.7610426e-14
1.0702119e-13
2.8796152e-05
1.0730581e-05
6.9930262e-06
8.8649875e-06
1.0957256e-05
1.2217782e-05
1.283482e-05
1.2782215e-05
1.2903123e-05
1.1022902e-05
7.0751543e-06
5.401398e-06
5.1174735e-06
3.9436556e-06
2.582454e-06
1.6781848e-06
1.030911e-06
5.2528747e-07
2.1541653e-07
7.6457967e-08
2.4263524e-08
7.030008e-09
1.865998e-09
4.4727322e-10
9.3666648e-11
1.6190553e-11
2.1318943e-12
2.4148129e-13
9.7327286e-14
1.0672706e-13
2.8851167e-05
1.0771489e-05
6.9925328e-06
8.8391026e-06
1.0924997e-05
1.2180606e-05
1.2797368e-05
1.2744896e-05
1.2862285e-05
1.0999199e-05
7.0593261e-06
5.3894804e-06
5.1047702e-06
3.9282595e-06
2.5721316e-06
1.6712735e-06
1.0263165e-06
5.2231973e-07
2.1406492e-07
7.5947644e-08
2.4096511e-08
6.9810194e-09
1.8529568e-09
4.4415127e-10
9.3014914e-11
1.6078532e-11
2.1174801e-12
2.4016637e-13
9.7045691e-14
1.064338e-13
2.8906812e-05
1.0814068e-05
6.9929539e-06
8.8137145e-06
1.0892891e-05
1.2143558e-05
1.2760041e-05
1.2707709e-05
1.2821588e-05
1.0975561e-05
7.0435185e-06
5.3775596e-06
5.0920624e-06
3.9128963e-06
2.5618302e-06
1.664376e-06
1.0217336e-06
5.1936404e-07
2.1272018e-07
7.5440287e-08
2.3930538e-08
6.9323467e-09
1.8400012e-09
4.4105006e-10
9.2367565e-11
1.5967276e-11
2.1031666e-12
2.388608e-13
9.6765873e-14
1.0614161e-13
2.896314e-05
1.0858352e-05
6.9942945e-06
8.7888252e-06
1.0860934e-05
1.2106643e-05
1.2722841e-05
1.2670654e-05
1.2781039e-05
1.0951991e-05
7.0277316e-06
5.3656358e-06
5.0793506e-06
3.8975651e-06
2.5515497e-06
1.6574912e-06
1.0171613e-06
5.1641969e-07
2.1138192e-07
7.4935696e-08
2.376553e-08
6.8839659e-09
1.8271245e-09
4.3796792e-10
9.1724241e-11
1.5856724e-11
2.0889459e-12
2.3756386e-13
9.6487683e-14
1.0585031e-13
2.9020204e-05
1.0904279e-05
6.9965541e-06
8.7644374e-06
1.0829134e-05
1.206986e-05
1.268577e-05
1.2633736e-05
1.2740639e-05
1.0928491e-05
7.0119659e-06
5.353709e-06
5.0666349e-06
3.8822657e-06
2.5412911e-06
1.6506198e-06
1.0126003e-06
5.1348714e-07
2.100504e-07
7.4433998e-08
2.3601536e-08
6.8358922e-09
1.814331e-09
4.3490593e-10
9.1085185e-11
1.5746919e-11
2.0748241e-12
2.3627631e-13
9.6211462e-14
1.0556023e-13
2.9078059e-05
1.0951791e-05
6.9997309e-06
8.7405526e-06
1.0797498e-05
1.2033213e-05
1.2648832e-05
1.2596958e-05
1.2700393e-05
1.0905062e-05
6.9962216e-06
5.3417793e-06
5.0539162e-06
3.8670004e-06
2.5310539e-06
1.6437617e-06
1.0080506e-06
5.1056635e-07
2.0872555e-07
7.3935149e-08
2.3438534e-08
6.7881187e-09
1.8016187e-09
4.3186359e-10
9.0450276e-11
1.563784e-11
2.0607983e-12
2.3499771e-13
9.5936926e-14
1.0527101e-13
2.9136759e-05
1.1000914e-05
7.0038253e-06
8.7171733e-06
1.0766021e-05
1.1996702e-05
1.2612023e-05
1.2560323e-05
1.2660307e-05
1.0881707e-05
6.9804993e-06
5.3298465e-06
5.0411952e-06
3.8517699e-06
2.5208386e-06
1.6369175e-06
1.0035122e-06
5.0765739e-07
2.074074e-07
7.3439165e-08
2.3276533e-08
6.7406483e-09
1.7889885e-09
4.2884114e-10
8.9819573e-11
1.5529498e-11
2.0468701e-12
2.3372836e-13
9.566425e-14
1.0498281e-13
2.9196359e-05
1.1051745e-05
7.0088353e-06
8.6943009e-06
1.0734703e-05
1.1960322e-05
1.2575344e-05
1.2523829e-05
1.2620383e-05
1.0858428e-05
6.9647991e-06
5.3179104e-06
5.0284723e-06
3.8365735e-06
2.5106454e-06
1.6300865e-06
9.9898464e-07
5.0475957e-07
2.0609553e-07
7.2945855e-08
2.3115459e-08
6.6934575e-09
1.7764336e-09
4.2583692e-10
8.9192721e-11
1.5421829e-11
2.0330314e-12
2.3246754e-13
9.5393287e-14
1.0469546e-13
2.9256913e-05
1.110437e-05
7.0147672e-06
8.6719367e-06
1.0703534e-05
1.1924076e-05
1.2538795e-05
1.248748e-05
1.258062e-05
1.083523e-05
6.9491213e-06
5.3059702e-06
5.015748e-06
3.8214121e-06
2.5004752e-06
1.6232694e-06
9.9446847e-07
5.0187341e-07
2.0479025e-07
7.2455347e-08
2.2955364e-08
6.6465627e-09
1.7639588e-09
4.2285208e-10
8.8569967e-11
1.5314879e-11
2.0192882e-12
2.3121597e-13
9.5124395e-14
1.044093e-13
2.9318476e-05
1.1158767e-05
7.0216186e-06
8.650082e-06
1.0672523e-05
1.1887964e-05
1.2502375e-05
1.2451277e-05
1.2541024e-05
1.0812115e-05
6.9334665e-06
5.2940253e-06
5.0030228e-06
3.8062879e-06
2.4903278e-06
1.6164662e-06
9.8996374e-07
4.9899895e-07
2.0349153e-07
7.1967618e-08
2.2796232e-08
6.5999586e-09
1.7515625e-09
4.1988619e-10
8.7951218e-11
1.5208629e-11
2.0056378e-12
2.2997318e-13
9.4857252e-14
1.0412395e-13
2.9381103e-05
1.1214851e-05
7.0293902e-06
8.6287373e-06
1.064167e-05
1.1851987e-05
1.2466086e-05
1.2415224e-05
1.2501601e-05
1.0789087e-05
6.9178357e-06
5.2820747e-06
4.9902977e-06
3.7912017e-06
2.4802039e-06
1.6096779e-06
9.8547076e-07
4.9613627e-07
2.021994e-07
7.148269e-08
2.2638075e-08
6.5536485e-09
1.7392455e-09
4.1693952e-10
8.7336533e-11
1.5103091e-11
1.9920819e-12
2.2873945e-13
9.4592025e-14
1.0383957e-13
2.9444848e-05
1.1272582e-05
7.0380775e-06
8.6079039e-06
1.061098e-05
1.1816147e-05
1.2429931e-05
1.2379323e-05
1.246235e-05
1.0766151e-05
6.9022296e-06
5.2701171e-06
4.9775731e-06
3.776153e-06
2.4701043e-06
1.6029038e-06
9.8098888e-07
4.9328476e-07
2.0091346e-07
7.1000369e-08
2.2480818e-08
6.5076092e-09
1.7270015e-09
4.1401045e-10
8.6725566e-11
1.4998206e-11
1.9786129e-12
2.275141e-13
9.4328593e-14
1.0355601e-13
2.9509763e-05
1.1331995e-05
7.0476796e-06
8.5875821e-06
1.0580446e-05
1.1780448e-05
1.2393911e-05
1.2343574e-05
1.2423273e-05
1.0743311e-05
6.8866491e-06
5.2581505e-06
4.9648498e-06
3.7611438e-06
2.4600294e-06
1.5961444e-06
9.7651896e-07
4.9044501e-07
1.9963407e-07
7.0520816e-08
2.232452e-08
6.461859e-09
1.7148356e-09
4.111003e-10
8.6118594e-11
1.4894021e-11
1.9652373e-12
2.2629796e-13
9.4067317e-14
1.0327363e-13
2.9575903e-05
1.139319e-05
7.058201e-06
8.5677724e-06
1.0550034e-05
1.1744904e-05
1.2358044e-05
1.2307979e-05
1.2384374e-05
1.0720573e-05
6.8710954e-06
5.2461725e-06
4.9521285e-06
3.7461757e-06
2.4499793e-06
1.5894003e-06
9.7206102e-07
4.8761711e-07
1.9836122e-07
7.0044006e-08
2.2169169e-08
6.416393e-09
1.7027462e-09
4.0820859e-10
8.5515515e-11
1.4790518e-11
1.9519523e-12
2.2509052e-13
9.3807845e-14
1.0299204e-13
2.964332e-05
1.1456219e-05
7.0696388e-06
8.5484751e-06
1.0519751e-05
1.1709512e-05
1.232233e-05
1.2272539e-05
1.2345654e-05
1.0697941e-05
6.8555701e-06
5.2341802e-06
4.9394105e-06
3.7312497e-06
2.4399549e-06
1.5826721e-06
9.6761533e-07
4.8480109e-07
1.9709492e-07
6.9569953e-08
2.2014772e-08
6.3712145e-09
1.6907343e-09
4.053356e-10
8.491639e-11
1.4687707e-11
1.9387595e-12
2.23892e-13
9.3550321e-14
1.0271138e-13
2.9712067e-05
1.1521026e-05
7.0819996e-06
8.5296894e-06
1.0489592e-05
1.1674276e-05
1.2286774e-05
1.2237256e-05
1.2307114e-05
1.0675423e-05
6.8400754e-06
5.2221697e-06
4.926697e-06
3.7163659e-06
2.4299572e-06
1.5759593e-06
9.6318141e-07
4.8199639e-07
1.958348e-07
6.9098476e-08
2.186126e-08
6.3263012e-09
1.6787936e-09
4.0247977e-10
8.4320884e-11
1.4585529e-11
1.9256509e-12