/*--------------------------------*- C++ -*----------------------------------*\
| =========                 |                                                 |
| \\      /  F ield         | OpenFOAM: The Open Source CFD Toolbox           |
|  \\    /   O peration     | Version:  v2012                                 |
|   \\  /    A nd           | Website:  www.openfoam.com                      |
|    \\/     M anipulation  |                                                 |
\*---------------------------------------------------------------------------*/
FoamFile
{
    version     2.0;
    format      ascii;
    class       volScalarField;
    location    "750";
    object      omega;
}
// * * * * * * * * * * * * * * * * * * * * * * * * * * * * * * * * * * * * * //

dimensions      [0 0 -1 0 0 0 0];


internalField   nonuniform List<scalar> 
24000
(
4167.5301
11737.6
32799.403
64281.192
95154.629
123321.36
145238.61
156827.67
158075.74
169781.37
240489.35
433030.16
678581.5
1021228
1465709.8
1951738.9
2489828
3183268.5
4236078
5984872.4
8975125.7
14147372
23268555
39949314
72271130
1.4054432e+08
3.0465059e+08
7.8737894e+08
2.7794682e+09
1.8087908e+10
4152.348
11673.276
32639.096
64081.395
94962.048
123151.5
145113.95
156758.01
158038.52
169702.64
240312.89
432714.52
678330.15
1021267.9
1465834
1951818.7
2490050.6
3183947
4237568.7
5987624.4
8979849.7
14155340
23282103
39972888
72313857
1.4062709e+08
3.0482898e+08
7.8783741e+08
2.781079e+09
1.8098353e+10
4137.2741
11608.397
32479.9
63892.886
94792.083
123019.34
145036.82
156732.22
158024.58
169645.75
240188.06
432534.51
678238.91
1021460.2
1465990.7
1951635.6
2489618.9
3183731.3
4238310.3
5990196.2
8985195.5
14164703
23297663
39999014
72359898
1.4071483e+08
3.0501666e+08
7.8831844e+08
2.782768e+09
1.8109305e+10
4122.1937
11543.461
32321.636
63705.601
94621.85
122886.13
144954.42
156695.9
158001.52
169584.17
240070.72
432377.54
678159.17
1021615.3
1465994.8
1951164
2488778.3
3182920
4238077.3
5991166.9
8988119.2
14170684
23308645
40018735
72396142
1.4078552e+08
3.0516954e+08
7.8871204e+08
2.7841519e+09
1.8118281e+10
4107.1863
11478.602
32163.569
63518.267
94451.33
122753.16
144871.71
156658.47
157977.4
169523.8
239963.26
432250.89
678119.06
1021820.2
1466057.8
1950766.8
2488042.2
3182274.1
4238125.9
5992607.3
8991768.3
14177712
23321097
40040592
72435748
1.4086216e+08
3.0533466e+08
7.8913646e+08
2.7856433e+09
1.8127953e+10
4092.2847
11413.966
32005.71
63330.797
94280.48
122620.13
144788.76
156620.22
157952.21
169463.59
239861.6
432143.64
678106
1022061.9
1466163.7
1950411.2
2487338.4
3181646.7
4238177.5
5994036.5
8995399.7
14184732
23333583
40062571
72475653
1.4093947e+08
3.055013e+08
7.8956489e+08
2.7871488e+09
1.8137717e+10
4077.5149
11349.621
31848.014
63143.064
94109.262
122487.06
144705.88
156581.75
157926.62
169403.68
239764.16
432050.27
678112.86
1022331.4
1466302.7
1950089
2486664.9
3181048.3
4238263.5
5995515.3
8999108
14191872
23346259
40084865
72516108
1.4101782e+08
3.0567017e+08
7.8999899e+08
2.7886742e+09
1.814761e+10
4062.8937
11285.605
31690.467
62955.011
93937.662
122353.88
144623.14
156543.24
157900.87
169344.02
239669.48
431966.2
678133.07
1022619.1
1466462.6
1949787.4
2486009.4
3180466.2
4238367.4
5997018.4
9002853.3
14199072
23359034
40107325
72556863
1.4109675e+08
3.0584029e+08
7.9043632e+08
2.790211e+09
1.8157577e+10
4048.4327
11221.944
31533.061
62766.603
93765.662
122220.55
144540.55
156504.82
157875.05
169284.56
239576.66
431888.29
678162.12
1022918.6
1466635.4
1949498.4
2485365.6
3179895.4
4238484.3
5998538.8
9006623.8
14206311
23371872
40129892
72597806
1.4117604e+08
3.0601119e+08
7.9087562e+08
2.7917549e+09
1.8167589e+10
4034.1401
11158.668
31375.794
62577.814
93593.25
122087.04
144458.13
156466.52
157849.3
169225.3
239485.03
431814.44
678196.93
1023225.5
1466815.9
1949217
2484729.2
3179332.5
4238610.7
6000071.3
9010410.8
14213574
23384747
40152522
72638859
1.4125554e+08
3.0618253e+08
7.9131611e+08
2.7933029e+09
1.8177628e+10
4020.0224
11095.831
31218.666
62388.628
93420.419
121953.32
144375.85
156428.41
157823.74
169166.22
239394.19
431743.24
678235.48
1023536.7
1467000.2
1948939.5
2484097.3
3178775.2
4238744
6001611.9
9014207.5
14220849
23397641
40175181
72679966
1.4133514e+08
3.0635408e+08
7.9175711e+08
2.7948525e+09
1.8187677e+10
4006.0846
11033.444
31061.679
62199.034
93247.16
121819.36
144293.72
156390.49
157798.41
169107.3
239303.81
431673.71
678276.4
1023850.5
1467186.1
1948663.8
2483468.1
3178222
4238882.7
6003158.7
9018010.7
14228132
23410545
40197854
72721095
1.4141478e+08
3.0652572e+08
7.9219833e+08
2.7964028e+09
1.8197731e+10
3992.3311
10971.517
30904.84
62009.025
93073.469
121685.12
144211.72
156352.79
157773.34
169048.53
239213.71
431605.17
678318.72
1024165.5
1467372.1
1948388.4
2482840.3
3177671.6
4239025.3
6004709.4
9021816.9
14235416
23423447
40220524
72762217
1.4149441e+08
3.0669733e+08
7.9263945e+08
2.7979528e+09
1.8207783e+10
3978.7658
10910.058
30748.158
61818.596
92899.339
121550.61
144129.85
156315.31
157748.55
168989.92
239123.72
431537.15
678361.78
1024480.7
1467557.1
1948112.2
2482213.3
3177123.6
4239171.3
6006263.1
9025624
14242698
23436343
40243181
72803314
1.4157399e+08
3.0686884e+08
7.9308033e+08
2.7995021e+09
1.8217831e+10
3965.3925
10849.078
30591.644
61627.744
92724.767
121415.78
144048.08
156278.06
157724.04
168931.45
239033.74
431469.34
678405.14
1024795.5
1467740.1
1947834.4
2481586.1
3176577.4
4239320
6007818.5
9029429.9
14249975
23449226
40265814
72844366
1.4165349e+08
3.0704017e+08
7.9352074e+08
2.8010498e+09
1.8227868e+10
3952.2148
10788.584
30435.308
61436.467
92549.751
121280.64
143966.41
156241.03
157699.82
168873.12
238943.69
431401.46
678448.47
1025109.4
1467920.9
1947554.7
2480958.8
3176032.7
4239471.1
6009375.4
9033234.7
14257245
23462097
40288421
72885370
1.4173288e+08
3.0721128e+08
7.9396062e+08
2.8025956e+09
1.8237892e+10
3939.2361
10728.587
30279.165
61244.766
92374.285
121145.16
143884.83
156204.23
157675.9
168814.93
238853.48
431333.3
678491.48
1025422.2
1468099
1947272.7
2480330.9
3175489.2
4239624.1
6010933
9037036.7
14264507
23474950
40310996
72926314
1.4181216e+08
3.0738214e+08
7.9439982e+08
2.8041389e+09
1.82479e+10
3926.4599
10669.096
30123.23
61052.642
92198.37
121009.33
143803.32
156167.64
157652.28
168756.86
238763.09
431264.73
678534
1025733.4
1468274.1
1946988.2
2479702.2
3174946.8
4239779.1
6012491.5
9040836
14271760
23487785
40333539
72967200
1.4189133e+08
3.0755274e+08
7.9483837e+08
2.8056798e+09
1.8257893e+10
3913.8895
10610.12
29967.52
60860.096
92022.001
120873.13
143721.87
156131.27
157628.96
168698.92
238672.45
431195.65
678575.9
1026043.1
1468445.9
1946700.7
2479072.5
3174405.4
4239935.9
6014050.1
9044631.6
14279004
23500601
40356046
73008019
1.4197037e+08
3.0772308e+08
7.9527621e+08
2.8072183e+09
1.8267871e+10
3901.5282
10551.668
29812.051
60667.132
91845.179
120736.56
143640.46
156095.12
157605.95
168641.1
238581.53
431125.94
678617.04
1026351
1468614.4
1946410.5
2478441.8
3173865.1
4240094.5
6015609.3
9048424
14286238
23513397
40378517
73048773
1.4204928e+08
3.0789314e+08
7.9571336e+08
2.8087545e+09
1.8277833e+10
3889.379
10493.751
29656.84
60473.754
91667.901
120599.59
143559.08
156059.16
157583.24
168583.39
238490.29
431055.5
678657.34
1026656.9
1468779.4
1946117.2
2477809.9
3173325.4
4240254.3
6017168
9052211.7
14293460
23526171
40400947
73089450
1.4212804e+08
3.0806289e+08
7.9614971e+08
2.8102879e+09
1.8287777e+10
3877.4452
10436.377
29501.907
60279.969
91490.167
120462.22
143477.71
156023.39
157560.82
168525.79
238398.71
430984.29
678696.72
1026960.9
1468940.7
1945820.7
2477176.8
3172786.4
4240415.8
6018726.9
9055995.8
14300673
23538925
40423339
73130057
1.4220666e+08
3.0823233e+08
7.965853e+08
2.8118186e+09
1.8297704e+10
3865.7296
10379.556
29347.274
60085.781
91311.979
120324.43
143396.33
155987.8
157538.7
168468.28
238306.75
430912.23
678735.1
1027262.8
1469098.4
1945521
2476542.4
3172248.1
4240578.5
6020285.5
9059775.1
14307873
23551655
40445689
73170586
1.4228513e+08
3.0840144e+08
7.9702002e+08
2.8133462e+09
1.8307611e+10
3854.235
10323.296
29192.959
59891.196
91133.331
120186.2
143314.93
155952.37
157516.86
168410.86
238214.38
430839.27
678772.44
1027562.6
1469252.5
1945218.2
2475906.7
3171710.5
4240742.9
6021844.2
9063550.8
14315063
23564364
40468001
73211045
1.4236347e+08
3.0857025e+08
7.9745394e+08
2.8148708e+09
1.8317498e+10
3842.9642
10267.607
29038.982
59696.222
90954.228
120047.53
143233.49
155917.09
157495.29
168353.51
238121.59
430765.35
678808.72
1027860.3
1469402.7
1944912
2475269.4
3171173.2
4240907.9
6023401.8
9067320.9
14322241
23577050
40490269
73251426
1.4244165e+08
3.0873874e+08
7.9788704e+08
2.8163926e+09
1.8327368e+10
3831.9198
10212.497
28885.365
59500.866
90774.671
119908.4
143151.99
155881.95
157473.99
168296.24
238028.35
430690.44
678843.89
1028155.8
1469549.2
1944602.6
2474631
3170636.6
4241074.2
6024959.2
9071086.9
14329408
23589715
40512500
73291735
1.425197e+08
3.0890694e+08
7.9831938e+08
2.8179118e+09
1.8337221e+10
3821.1042
10157.974
28732.132
59305.138
90594.659
119768.79
143070.4
155846.93
157452.94
168239.03
237934.63
430614.5
678877.89
1028449
1469692
1944290.1
2473991.2
3170100.5
4241241.8
6026515.9
9074847.7
14336562
23602355
40534685
73331963
1.4259759e+08
3.090748e+08
7.9875086e+08
2.819428e+09
1.8347055e+10
3810.5197
10104.046
28579.303
59109.044
90414.197
119628.69
142988.7
155812.01
157432.14
168181.86
237840.42
430537.51
678910.74
1028740.1
1469831
1943974.3
2473350.2
3169565.2
4241410.9
6028072.8
9078604.6
14343705
23614974
40556832
73372117
1.4267533e+08
3.0924233e+08
7.9918154e+08
2.8209415e+09
1.8356872e+10
3800.1685
10050.721
28426.902
58912.596
90233.283
119488.1
142906.88
155777.16
157411.56
168124.73
237745.7
430459.42
678942.43
1029028.9
1469966.2
1943655.1
2472707.7
3169030.3
4241580.9
6029628.7
9082356.2
14350836
23627569
40578935
73412193
1.4275291e+08
3.0940954e+08
7.9961134e+08
2.8224516e+09
1.8366667e+10
3790.0527
9998.0059
28274.948
58715.803
90051.925
119346.98
142824.9
155742.38
157391.2
168067.62
237650.45
430380.22
678972.91
1029315.5
1470097.7
1943332.9
2472064.1
3168496.4
4241752.5
6031184.9
9086104.4
14357958
23640145
40601003
73452202
1.4283037e+08
3.0957645e+08
8.0004036e+08
2.8239588e+09
1.8376446e+10
3780.1741
9945.9076
28123.465
58518.677
89870.125
119205.34
142742.74
155707.64
157371.02
168010.52
237554.65
430299.85
679002.13
1029599.8
1470225.5
1943007.4
2471419
3167962.8
4241925.3
6032740.6
9089847.7
14365068
23652697
40623028
73492134
1.4290768e+08
3.0974304e+08
8.0046854e+08
2.8254631e+09
1.8386206e+10
3770.5343
9894.432
27972.477
58321.227
89687.888
119063.15
142660.39
155672.91
157351.03
167953.41
237458.28
430218.32
679030.12
1029881.9
1470349.4
1942678.5
2470772.5
3167429.8
4242099.4
6034296.2
9093587.2
14372167
23665229
40645015
73531995
1.4298485e+08
3.0990934e+08
8.0089595e+08
2.8269646e+09
1.839595e+10
3761.1349
9843.585
27822.006
58123.464
89505.22
118920.4
142577.81
155638.17
157331.19
167896.28
237361.32
430135.58
679056.88
1030161.7
1470469.5
1942346.3
2470124.5
3166897
4242274.1
6035850.5
9097321.1
14379253
23677737
40666959
73571776
1.4306187e+08
3.100753e+08
8.0132248e+08
2.8284631e+09
1.8405677e+10
3751.9774
9793.372
27672.073
57925.4
89322.124
118777.08
142494.97
155603.4
157311.48
167839.11
237263.75
430051.61
679082.35
1030439.2
1470585.9
1942011
2469475.4
3166365.1
4242450.4
6037405.1
9101051.5
14386330
23690225
40688865
73611487
1.4313874e+08
3.1024094e+08
8.0174822e+08
2.8299586e+09
1.8415388e+10
3743.0628
9743.7982
27522.699
57727.046
89138.612
118633.18
142411.86
155568.57
157291.89
167781.89
237165.57
429966.39
679106.51
1030714.5
1470698.6
1941672.5
2468824.8
3165833.5
4242627.6
6038958.7
9104776.4
14393394
23702689
40710728
73651118
1.4321546e+08
3.1040624e+08
8.0217302e+08
2.8314505e+09
1.8425079e+10
3734.3923
9694.8675
27373.906
57528.414
88954.687
118488.68
142328.44
155533.66
157272.39
167724.6
237066.75
429879.93
679129.41
1030987.5
1470807.5
1941330.7
2468172.9
3165302.6
4242806.1
6040512.3
9108497.8
14400448
23715133
40732554
73690678
1.4329203e+08
3.1057122e+08
8.0259693e+08
2.8329389e+09
1.8434752e+10
3725.9666
9646.5834
27225.718
57329.514
88770.361
118343.57
142244.69
155498.64
157252.95
167667.22
236967.28
429792.17
679151.03
1031258.2
1470912.6
1940985.6
2467519.5
3164771.9
4242985.5
6042064.9
9112213.9
14407490
23727553
40754338
73730162
1.4336846e+08
3.1073587e+08
8.0301994e+08
2.8344238e+09
1.8444407e+10
3717.7862
9598.9493
27078.154
57130.359
88585.642
118197.83
142160.58
155463.48
157233.57
167609.73
236867.15
429703.13
679171.34
1031526.8
1471014.2
1940637.6
2466865.1
3164242.3
4243166.7
6043618.5
9115927.6
14414524
23739957
40776088
73769582
1.4344476e+08
3.1090023e+08
8.0344215e+08
2.8359055e+09
1.845405e+10
3709.8518
9551.9682
26931.234
56930.961
88400.54
118051.46
142076.09
155428.16
157214.2
167552.12
236766.35
429612.8
679190.35
1031793
1471111.9
1940286.1
2466209
3163712.8
4243348.6
6045170.9
9119635.8
14421546
23752336
40797794
73808919
1.4352089e+08
3.1106423e+08
8.0386337e+08
2.8373835e+09
1.8463677e+10
3702.1635
9505.6421
26784.976
56731.331
88215.071
117904.45
141991.19
155392.66
157194.82
167494.38
236664.87
429521.17
679208.08
1032057.1
1471205.9
1939931.3
2465551.4
3163183.5
4243531.4
6046722.8
9123339.8
14428557
23764694
40819461
73848183
1.4359687e+08
3.1122787e+08
8.0428363e+08
2.8388576e+09
1.8473289e+10
3694.7214
9459.9723
26639.4
56531.481
88029.245
117756.77
141905.85
155356.93
157175.42
167436.47
236562.69
429428.21
679224.52
1032318.9
1471296.2
1939573.3
2464892.2
3162654.4
4243714.6
6048273.2
9127038
14435554
23777028
40841083
73887362
1.4367268e+08
3.1139112e+08
8.0470279e+08
2.8403272e+09
1.8482883e+10
3687.5252
9414.9596
26494.526
56331.422
87843.076
117608.43
141820.06
155320.97
157155.95
167378.4
236459.82
429333.94
679239.68
1032578.6
1471383.1
1939212.4
2464232
3162126.1
4243899.7
6049824.3
9130733.7
14442544
23789343
40862670
73926472
1.4374835e+08
3.1155403e+08
8.0512091e+08
2.841792e+09
1.849246e+10
3680.5747
9370.6041
26350.372
56131.164
87656.58
117459.4
141733.77
155284.73
157136.4
167320.13
236356.26
429238.38
679253.58
1032836.2
1471466.2
1938848.1
2463570.2
3161598
4244085.3
6051374.4
9134424
14449521
23801635
40884213
73965499
1.4382384e+08
3.1171655e+08
8.0553786e+08
2.8432518e+09
1.8502021e+10
3673.8692
9326.9059
26206.952
55930.717
87469.773
117309.67
141646.97
155248.21
157116.74
167261.65
236251.98
429141.53
679266.26
1033091.6
1471545.6
1938480.6
2462906.8
3161070.1
4244271.9
6052924.2
9138110.5
14456488
23813907
40905718
74004451
1.4389919e+08
3.1187869e+08
8.059537e+08
2.8447067e+09
1.8511569e+10
3667.4081
9283.8641
26064.282
55730.092
87282.609
117159.33
141559.63
155211.37
157096.95
167202.95
236147.01
429043.37
679277.7
1033345
1471621.6
1938109.9
2462241.9
3160542.3
4244458.8
6054472.4
9141791.1
14463442
23826154
40927177
74043317
1.4397435e+08
3.1204042e+08
8.063683e+08
2.8461562e+09
1.8521104e+10
3661.1905
9241.477
25922.377
55529.303
87095.065
117008.42
141471.74
155174.19
157076.99
167144
236041.32
428943.94
679287.96
1033596.6
1471694.1
1937736.2
2461575.7
3160015.1
4244647.3
6056021.1
9145469.1
14470388
23838383
40948600
74082108
1.4404935e+08
3.1220174e+08
8.0678166e+08
2.8476001e+09
1.8530626e+10
3655.2151
9199.7421
25781.254
55328.36
86907.152
116856.92
141383.27
155136.66
157056.85
167084.79
235934.94
428843.25
679297.03
1033846.5
1471763.1
1937359.2
2460907.8
3159487.6
4244835.9
6057568.2
9149141.3
14477320
23850586
40969974
74120807
1.4412415e+08
3.1236258e+08
8.0719358e+08
2.8490373e+09
1.8540134e+10
3649.4806
9158.6567
25640.924
55127.275
86718.876
116704.84
141294.2
155098.74
157036.5
167025.31
235827.85
428741.31
679304.91
1034094.6
1471828.5
1936979.1
2460238.4
3158960.4
4245025.3
6059114.9
9152809.3
14484242
23862767
40991306
74159421
1.4419877e+08
3.1252296e+08
8.0760401e+08
2.8504674e+09
1.8549625e+10
3643.9855
9118.2174
25501.398
54926.059
86530.242
116552.16
141204.51
155060.42
157015.91
166965.53
235720.07
428638.12
679311.55
1034340.8
1471890.4
1936595.7
2459567.3
3158433.1
4245214.9
6060659.8
9156471.2
14491151
23874923
41012591
74197941
1.442732e+08
3.1268284e+08
8.0801282e+08
2.8518896e+09
1.8559101e+10
3638.7282
9078.4205
25362.687
54724.721
86341.264
116398.9
141114.19
155021.68
156995.07
166905.45
235611.6
428533.72
679316.99
1034584.9
1471948.9
1936209.4
2458894.9
3157906.3
4245406
6062205.3
9160130.6
14498051
23887060
41033837
74236382
1.4434744e+08
3.1284226e+08
8.0842011e+08
2.8533044e+09
1.8568566e+10
3633.7068
9039.2611
25224.801
54523.273
86151.946
116245.05
141023.21
154982.51
156973.95
166845.04
235502.46
428428.16
679321.25
1034826.9
1472003.8
1935819.9
2458220.9
3157379.3
4245597.2
6063749
9163783.9
14504938
23899171
41055034
74274723
1.4442146e+08
3.1300113e+08
8.0882565e+08
2.8547107e+09
1.8578019e+10
3628.9192
9000.7337
25087.748
54321.724
85962.299
116090.61
140931.57
154942.89
156952.53
166784.29
235392.64
428321.45
679324.35
1035066.7
1472055.2
1935427.1
2457545.3
3156852.5
4245789.1
6065292.2
9167433.1
14511814
23911259
41076184
74312971
1.4449528e+08
3.1315945e+08
8.0922938e+08
2.8561082e+09
1.8587462e+10
3624.363
8962.8322
24951.539
54120.081
85772.331
115935.58
140839.24
154902.8
156930.79
166723.18
235282.17
428213.63
679326.32
1035304.4
1472103
1935031.1
2456867.9
3156325.3
4245980.9
6066833.5
9171076
14518675
23923320
41097283
74351114
1.4456885e+08
3.1331716e+08
8.0963113e+08
2.8574958e+09
1.8596892e+10
3620.0359
8925.5505
24816.178
53918.353
85582.05
115779.96
140746.2
154862.24
156908.71
166661.7
235171.05
428104.76
679327.24
1035540.2
1472147.4
1934632.2
2456189.2
3155798.7
4246174.1
6068375.1
9174715.8
14525528
23935361
41118338
74389164
1.4464222e+08
3.134743e+08
8.1003091e+08
2.8588733e+09
1.860631e+10
3615.9352
8888.8816
24681.668
53716.548
85391.468
115623.76
140652.44
154821.19
156886.27
166599.83
235059.31
427994.88
679327.11
1035773.9
1472188.3
1934230.1
2455508.8
3155271.7
4246367.2
6069914.9
9178349.5
14532367
23947374
41139340
74427104
1.4471534e+08
3.1363077e+08
8.1042842e+08
2.8602391e+09
1.8615713e+10
3612.0581
8852.818
24548.014
53514.673
85200.591
115466.96
140557.94
154779.65
156863.46
166537.55
234946.95
427884.07
679325.99
1036005.5
1472225.7
1933824.8
2454826.8
3154744.7
4246561
6071453.8
9181978.6
14539195
23959364
41160294
74464941
1.4478822e+08
3.137866e+08
8.108237e+08
2.8615934e+09
1.8625104e+10
3608.4018
8817.3514
24415.219
53312.736
85009.434
115309.59
140462.7
154737.61
156840.27
166474.85
234834
427772.37
679323.97
1036235.2
1472259.6
1933416.3
2454143
3154217.4
4246754.5
6072990.7
9185601.4
14546008
23971325
41181193
74502666
1.4486084e+08
3.1394175e+08
8.1121663e+08
2.8629355e+09
1.8634486e+10
3604.9629
8782.473
24283.288
53110.742
84818.002
115151.63
140366.69
154695.06
156816.67
166411.7
234720.47
427659.87
679321.12
1036463.1
1472290.2
1933004.8
2453457.9
3153690.6
4246949.4
6074528.1
9189221.3
14552812
23983264
41202045
74540289
1.4493321e+08
3.1409622e+08
8.1160717e+08
2.8642653e+09
1.8643861e+10
3601.7383
8748.1737
24152.221
52908.696
84626.305
114993.1
140269.89
154652.01
156792.67
166348.08
234606.38
427546.67
679317.49
1036689
1472317.5
1932590.3
2452771
3153163.3
4247144
6076063.4
9192834.6
14559601
23995174
41222839
74577788
1.450053e+08
3.142499e+08
8.1199506e+08
2.8655814e+09
1.8653225e+10
3598.7245
8714.4443
24022.015
52706.602
84434.354
114833.99
140172.3
154608.46
156768.24
166283.97
234491.76
427432.86
679313.16
1036913
1472341.3
1932172.6
2452082.6
3152636
4247339.1
6077597.5
9196442.9
14566378
24007059
41243580
74615173
1.4507711e+08
3.1440282e+08
8.1238027e+08
2.8668833e+09
1.8662579e+10
3595.9179
8681.2749
23892.669
52504.466
84242.157
114674.32
140073.9
154564.41
156743.39
166219.35
234376.6
427318.53
679308.23
1037135.3
1472361.6
1931751.7
2451392.3
3152108.2
4247534
6079129.5
9200044.7
14573141
24018915
41264262
74652432
1.4514863e+08
3.1455494e+08
8.1276262e+08
2.8681699e+09
1.867192e+10
3593.3149
8648.655
23764.181
52302.292
84049.728
114514.07
139974.68
154519.87
156718.1
166154.19
234260.95
427203.81
679302.82
1037356
1472378.8
1931328
2450700.9
3151581
4247730.1
6080661.8
9203643.4
14579894
24030748
41284895
74689580
1.4521988e+08
3.1470627e+08
8.1314209e+08
2.869441e+09
1.8681251e+10
3590.9116
8616.5734
23636.549
52100.082
83857.073
114353.27
139874.61
154474.84
156692.39
166088.45
234144.81
427088.88
679297.01
1037574.8
1472392.7
1930901.4
2450007.7
3151053.4
4247925.9
6082192.1
9207235.7
14586632
24042551
41305467
74726597
1.4529082e+08
3.1485674e+08
8.1351851e+08
2.8706959e+09
1.8690572e+10
3588.7039
8585.0189
23509.77
51897.841
83664.204
114191.9
139773.69
154429.33
156666.23
166022.1
234028.19
426973.89
679290.94
1037792.1
1472403.2
1930471.6
2449312.9
3150525.6
4248122.2
6083721.3
9210822.9
14593358
24054326
41325982
74763491
1.4536145e+08
3.1500637e+08
8.1389189e+08
2.8719345e+09
1.8699887e+10
3586.6876
8553.9801
23383.838
51695.567
83471.129
114029.98
139671.89
154383.36
156639.65
165955.11
233911.1
426859.04
679284.72
1038007.8
1472410.4
1930038.7
2448616.5
3149997.4
4248318.1
6085248.1
9214403
14600068
24066071
41346434
74800249
1.4543176e+08
3.1515508e+08
8.1426204e+08
2.8731561e+09
1.8709194e+10
3584.8587
8523.4454
23258.744
51493.265
83277.858
113867.5
139569.2
154336.94
156612.64
165887.41
233793.52
426744.57
679278.49
1038222
1472414.6
1929603.2
2447919
3149469.9
4248515.4
6086775.2
9217980.1
14606768
24077793
41366835
74836886
1.4550177e+08
3.1530291e+08
8.14629e+08
2.8743603e+09
1.8718495e+10
3583.2128
8493.4028
23134.483
51290.936
83084.343
113704.65
139465.72
154290.09
156585.21
165818.98
233675.44
426630.78
679272.39
1038434.7
1472415.7
1929164.9
2447219.8
3148941.9
4248712.2
6088300
9221550.4
14613453
24089483
41387170
74873381
1.4557144e+08
3.1544978e+08
8.1499251e+08
2.875546e+09
1.8727786e+10
3581.7455
8463.8396
23011.049
51088.583
82890.457
113541.79
139361.69
154242.82
156557.38
165749.73
233556.82
426518.06
679266.58
1038645.9
1472413.5
1928723.5
2446519.2
3148413.9
4248909.4
6089823.7
9225115.7
14620126
24101146
41407447
74909745
1.4564078e+08
3.1559571e+08
8.1535256e+08
2.8767126e+09
1.8737065e+10
3580.4521
8434.7431
22888.433
50886.21
82696.203
113378.9
139257.37
154195.14
156529.16
165679.62
233437.61
426406.85
679261.18
1038855.9
1472408.1
1928279.3
2445817.1
3147885.6
4249106.5
6091345.3
9228674.1
14626783
24112777
41427660
74945969
1.4570978e+08
3.1574068e+08
8.1570906e+08
2.87786e+09
1.8746334e+10
3579.328
8406.1002
22766.628
50683.815
82501.584
113215.99
139152.81
154147.07
156500.58
165608.56
233317.71
426297.75
679256.34
1039064.5
1472399.9
1927832.8
2445114.3
3147358.2
4249305.1
6092867.2
9232229.5
14633430
24124385
41447818
74982067
1.4577846e+08
3.1588471e+08
8.1606212e+08
2.8789885e+09
1.8755599e+10
3578.3685
8377.8982
22645.624
50481.406
82306.599
113053.03
139048.02
154098.63
156471.66
165536.47
233196.97
426191.52
679252.15
1039271.7
1472388.7
1927383.4
2444409.8
3146830.4
4249503.3
6094386.7
9235777.7
14640061
24135959
41467909
75018018
1.4584678e+08
3.1602772e+08
8.1641149e+08
2.8800973e+09
1.8764857e+10
3577.5688
8350.1243
22525.408
50278.981
82111.254
112890.01
138942.99
154049.81
156442.43
165463.26
233075.18
426089.19
679248.65
1039477.7
1472374.3
1926931.2
2443704.1
3146302.7
4249701.8
6095905
9239320.7
14646679
24147506
41487940
75053832
1.4591476e+08
3.1616974e+08
8.1675726e+08
2.8811866e+09
1.877411e+10
3576.9242
8322.7651
22405.971
50076.546
81915.549
112726.93
138837.72
154000.64
156412.95
165388.84
232952.04
425992.08
679245.71
1039682.2
1472356.8
1926476.5
2442997.1
3145775
4249900.3
6097421.3
9242857.1
14653282
24159022
41507906
75089501
1.4598239e+08
3.1631074e+08
8.1709935e+08
2.8822559e+09
1.8783354e+10
3576.4297
8295.8071
22287.304
49874.103
81719.489
112563.76
138732.21
153951.14
156383.26
165313.67
232828
425898.45
679242.96
1039885.4
1472336.8
1926019.5
2442289.6
3145248.3
4250100.7
6098938.5
9246391.3
14659876
24170515
41527819
75125045
1.4604969e+08
3.1645078e+08
8.1743782e+08
2.8833049e+09
1.8792593e+10
3576.0802
8269.2368
22169.395
49671.651
81523.075
112400.5
138626.47
153901.3
156353.4
165238.48
232703.96
425804.8
679240.05
1040087.2
1472313.7
1925559.9
2441580.6
3144721.3
4250300.8
6100453.4
9249918.4
14666455
24181975
41547664
75160438
1.4611663e+08
3.1658977e+08
8.1777239e+08
2.8843327e+09
1.8801818e+10
3575.8707
8243.0406
22052.234
49469.197
81326.308
112237.13
138520.48
153851.16
156323.39
165163.32
232579.97
425711.05
679236.99
1040287.5
1472287.7
1925097.7
2440870.5
3144194.7
4250501.2
6101966.9
9253440.2
14673020
24193408
41567449
75195697
1.4618322e+08
3.1672776e+08
8.1810327e+08
2.8853401e+09
1.8811036e+10
3575.7961
8217.2054
21935.807
49266.737
81129.191
112073.64
138414.26
153800.71
156293.26
165088.2
232456.05
425617.22
679233.78
1040486.5
1472258.8
1924633.1
2440159.4
3143668.1
4250701.6
6103478.2
9256955.1
14679570
24204809
41587170
75230813
1.4624947e+08
3.1686475e+08
8.1843047e+08
2.8863277e+09
1.882025e+10
3575.8514
8191.7179
21820.101
49064.279
80931.725
111910.01
138307.79
153749.99
156263.02
165013.14
232332.23
425523.35
679230.5
1040684.1
1472227.5
1924166.6
2439448
3143142.7
4250904.1
6104990.9
9260468.2
14686112
24216188
41606839
75265804
1.4631538e+08
3.1700076e+08
8.1875409e+08
2.8872956e+09
1.8829461e+10
3576.0315
8166.5647
21705.103
48861.824
80733.915
111746.23
138201.07
153698.99
156232.71
164938.16
232208.51
425429.48
679227.22
1040880.4
1472193.2
1923697.4
2438735.2
3142617.2
4251106.6
6106501.7
9263975.1
14692639
24227537
41626443
75300649
1.4638094e+08
3.1713574e+08
8.1907396e+08
2.8882432e+09
1.8838666e+10
3576.331
8141.7325
21590.801
48659.373
80535.763
111582.28
138094.11
153647.73
156202.33
164863.26
232084.92
425335.66
679224
1041075.6
1472156.2
1923226
2438021.5
3142092.3
4251309.7
6108011.6
9267477.4
14699155
24238860
41645991
75335366
1.4644618e+08
3.1726977e+08
8.1939026e+08
2.8891711e+09
1.8847864e+10
3576.7449
8117.2076
21477.185
48456.931
80337.271
111418.16
137986.89
153596.24
156171.92
164788.47
231961.47
425241.89
679220.83
1041269.5
1472116.6
1922752.4
2437307.2
3141567.7
4251513
6109519.4
9270973.1
14705656
24250153
41665477
75369945
1.4651108e+08
3.1740281e+08
8.1970292e+08
2.8900788e+09
1.8857053e+10
3577.2678
8092.9771
21364.241
48254.496
80138.444
111253.83
137879.41
153544.51
156141.49
164713.8
231838.17
425148.23
679217.8
1041462.3
1472074.7
1922277
2436592.6
3141044.5
4251718.4
6111028.7
9274467.3
14712149
24261425
41684914
75404407
1.4657567e+08
3.1753493e+08
8.2001206e+08
2.8909669e+09
1.8866235e+10
3577.8944
8069.028
21251.953
48052.075
79939.282
111089.3
137771.67
153492.57
156111.06
164639.26
231715.04
425054.69
679214.97
1041653.9
1472030.1
1921799.2
2435876.9
3140521.2
4251924
6112536.3
9277955.6
14718628
24272669
41704291
75438735
1.4663992e+08
3.1766609e+08
8.2031765e+08
2.8918355e+09
1.8875409e+10
3578.6195
8045.3478
21140.309
47849.668
79739.791
110924.54
137663.66
153440.41
156080.66
164564.86
231592.07
424961.27
679212.39
1041844.6
1471982.8
1921319.3
2435160.5
3139998.7
4252130.6
6114043.5
9281440.1
14725097
24283889
41723616
75472944
1.4670387e+08
3.1779636e+08
8.2061995e+08
2.8926862e+09
1.8884582e+10
3579.4379
8021.9238
21029.293
47647.279
79539.976
110759.54
137555.38
153388.07
156050.31
164490.62
231469.28
424867.99
679210.01
1042034.2
1471933.2
1920837.5
2434443.6
3139476.9
4252337.7
6115549.3
9284918.8
14731553
24295082
41742883
75507021
1.467675e+08
3.1792569e+08
8.2091887e+08
2.8935188e+09
1.8893749e+10
3580.3443
7998.7433
20918.892
47444.911
79339.84
110594.29
137446.81
153335.54
156020.02
164416.55
231346.68
424774.89
679207.96
1042222.8
1471881.5
1920354
2433726.7
3138956.7
4252547.2
6117056.8
9288396.9
14738003
24306257
41762107
75540993
1.4683085e+08
3.1805418e+08
8.2121467e+08
2.8943341e+09
1.8902916e+10
3581.3334
7975.7938
20809.095
47242.563
79139.391
110428.77
137337.95
153282.83
155989.81
164342.65
231224.27
424681.99
679206.3
1042410.5
1471827.2
1919868.4
2433008.9
3138436.6
4252756.8
6118562.8
9291869.8
14744440
24317407
41781279
75574847
1.4689391e+08
3.1818182e+08
8.2150729e+08
2.8951318e+09
1.8912076e+10
3582.3999
7953.0629
20699.886
47040.242
78938.633
110262.96
137228.8
153229.96
155959.72
164268.95
231102.04
424589.28
679205.05
1042597.5
1471770.6
1919380.9
2432290.5
3137917.3
4252967.7
6120068.9
9295339.5
14750868
24328536
41800405
75608596
1.4695671e+08
3.1830866e+08
8.2179687e+08
2.8959125e+09
1.8921229e+10
3583.5385
7930.5388
20591.251
46837.946
78737.573
110096.86
137119.34
153176.93
155929.75
164195.44
230980.01
424496.74
679204.18
1042783.6
1471711.9
1918891.7
2431572
3137399.1
4253179.6
6121574
9298804.2
14757285
24339640
41819478
75642230
1.4701921e+08
3.1843468e+08
8.2208338e+08
2.8966763e+09
1.8930371e+10
3584.7439
7908.2101
20483.173
46635.678
78536.217
109930.45
137009.57
153123.75
155899.93
164122.13
230858.17
424404.41
679203.75
1042968.9
1471651.2
1918401.2
2430853.7
3136882.8
4253394.3
6123081.6
9302269.2
14763697
24350731
41838517
75675777
1.4708148e+08
3.1855999e+08
8.2236717e+08
2.8974249e+09
1.8939512e+10
3586.0111
7886.0655
20375.638
46433.44
78334.572
109763.72
136899.48
153070.43
155870.27
164049.04
230736.52
424312.28
679203.85
1043153.5
1471588.2
1917908.7
2430134.7
3136366.9
4253609.4
6124588.1
9305730.1
14770099
24361800
41857508
75709216
1.4714348e+08
3.1868453e+08
8.226482e+08
2.8981586e+09
1.8948651e+10
3587.3348
7864.0939
20268.63
46231.229
78132.649
109596.66
136789.06
153016.97
155840.78
163976.16
230615.05
424220.34
679204.47
1043337.5
1471523.2
1917414.6
2429415.5
3135852
4253826
6126095.2
9309189
14776494
24372852
41876462
75742566
1.4720525e+08
3.1880838e+08
8.2292671e+08
2.8988788e+09
1.895779e+10
3588.7045
7842.287
20162.157
46029.051
77930.457
109429.26
136678.31
152963.39
155811.5
163903.51
230493.76
424128.56
679205.57
1043520.8
1471456.4
1916919.2
2428696.3
3135338.3
4254043.9
6127602.1
9312644.4
14782880
24383884
41895376
75775824
1.472668e+08
3.1893156e+08
8.2320277e+08
2.8995856e+09
1.8966926e+10
3590.1051
7820.6271
20056.251
45826.902
77728.007