/*--------------------------------*- C++ -*----------------------------------*\
| =========                 |                                                 |
| \\      /  F ield         | OpenFOAM: The Open Source CFD Toolbox           |
|  \\    /   O peration     | Version:  v2012                                 |
|   \\  /    A nd           | Website:  www.openfoam.com                      |
|    \\/     M anipulation  |                                                 |
\*---------------------------------------------------------------------------*/
FoamFile
{
    version     2.0;
    format      ascii;
    class       surfaceScalarField;
    location    "750";
    object      phi;
}
// * * * * * * * * * * * * * * * * * * * * * * * * * * * * * * * * * * * * * //

dimensions      [1 0 -1 0 0 0 0];
oriented        oriented;


internalField   nonuniform List<scalar> 
47170
(
-1.3006828e-08
-4.3517428e-05
-2.0458472e-08
-3.5799748e-05
-1.7585197e-08
-2.80518e-05
-8.2493829e-09
-2.0212324e-05
-2.3215211e-10
-1.3729542e-05
3.9132619e-09
-9.0937148e-06
5.3723306e-09
-6.0636249e-06
5.2747088e-09
-4.1161783e-06
4.5803082e-09
-2.8653191e-06
3.635841e-09
-2.0245082e-06
2.6519634e-09
-1.4106876e-06
1.9232099e-09
-9.5958584e-07
1.442499e-09
-6.5627608e-07
1.0878501e-09
-4.5374434e-07
8.1292569e-10
-3.1188578e-07
6.0469207e-10
-2.1190714e-07
4.459901e-10
-1.4292884e-07
3.2540449e-10
-9.5814747e-08
2.3400658e-10
-6.384745e-08
1.6561685e-10
-4.2337741e-08
1.1455808e-10
-2.7951723e-08
7.7099444e-11
-1.8346548e-08
5.0019224e-11
-1.1936363e-08
3.1051106e-11
-7.6640504e-09
1.8149633e-11
-4.8256133e-09
9.753782e-12
-2.9502879e-09
4.6179966e-12
-1.7218414e-09
1.7437542e-12
-9.2712246e-10
3.8819116e-13
-4.2217449e-10
-1.0972566e-10
-1.422413e-08
-4.3503204e-05
-2.2725542e-08
-3.5791247e-05
-1.9259228e-08
-2.8055267e-05
-8.1594761e-09
-2.0223424e-05
1.2010295e-09
-1.3738903e-05
5.9164395e-09
-9.0984302e-06
7.4001466e-09
-6.0651088e-06
7.0445178e-09
-4.1158226e-06
5.8572817e-09
-2.8641321e-06
4.5191338e-09
-2.02317e-06
3.3829999e-09
-1.4095517e-06
2.5287783e-09
-9.587315e-07
1.9033265e-09
-6.5565078e-07
1.4114801e-09
-4.5325233e-07
1.0213586e-09
-3.1149573e-07
7.2865679e-10
-2.1161425e-07
5.1423144e-10
-1.4271443e-07
3.589506e-10
-9.565928e-08
2.4734456e-10
-6.3735822e-08
1.6814945e-10
-4.2258403e-08
1.121976e-10
-2.7895736e-08
7.3157084e-11
-1.8307406e-08
4.6212253e-11
-1.1909382e-08
2.805055e-11
-7.6458213e-09
1.6087028e-11
-4.8136254e-09
8.5290635e-12
-2.9426893e-09
3.964117e-12
-1.7172763e-09
1.4567353e-12
-9.2461004e-10
3.0168843e-13
-4.2101587e-10
-1.0942397e-10
-1.4650831e-08
-4.3488553e-05
-2.3353319e-08
-3.5782544e-05
-1.9613612e-08
-2.8059006e-05
-8.0596095e-09
-2.0234978e-05
1.6459646e-09
-1.3748608e-05
6.5591563e-09
-9.1033434e-06
7.9633451e-09
-6.0665131e-06
7.4625759e-09
-4.1153218e-06
6.134086e-09
-2.8628038e-06
4.6869491e-09
-2.0217227e-06
3.4638857e-09
-1.4083288e-06
2.5268407e-09
-9.5779434e-07
1.8316893e-09
-6.5495573e-07
1.2895434e-09
-4.5271006e-07
8.6912207e-10
-3.1107539e-07
5.650793e-10
-2.1131008e-07
3.5538913e-10
-1.425048e-07
2.1622956e-10
-9.5520005e-08
1.2735133e-10
-6.3646974e-08
7.3114052e-11
-4.2204075e-08
4.0926153e-11
-2.786356e-08
2.2395364e-11
-1.8288818e-08
1.1886351e-11
-1.1898875e-08
6.1090518e-12
-7.6400098e-09
2.9798458e-12
-4.8104889e-09
1.3515984e-12
-2.9410482e-09
5.4585977e-13
-1.716455e-09
1.7767158e-13
-9.2422851e-10
3.4971497e-14
-4.208637e-10
-1.09389e-10
-1.4946158e-08
-4.3473607e-05
-2.3780584e-08
-3.577371e-05
-1.9872482e-08
-2.8062914e-05
-8.0173245e-09
-2.0246833e-05
1.9604113e-09
-1.3758586e-05
6.979394e-09
-9.1083624e-06
8.344568e-09
-6.0678784e-06
7.7713806e-09
-4.1147486e-06
6.3817952e-09
-2.8614143e-06
4.8856663e-09
-2.0202265e-06
3.6133563e-09
-1.4070566e-06
2.6361961e-09
-9.5681708e-07
1.9142007e-09
-6.5423384e-07
1.355257e-09
-4.5215101e-07
9.2572878e-10
-3.1064595e-07
6.1773229e-10
-2.1100197e-07
4.0545897e-10
-1.4229259e-07
2.626889e-10
-9.537713e-08
1.6837642e-10
-6.3552697e-08
1.0718065e-10
-4.2142802e-08
6.7529436e-11
-2.7823924e-08
4.1970312e-11
-1.8263208e-08
2.5476724e-11
-1.1882386e-08
1.4980335e-11
-7.6294878e-09
8.3750481e-12
-4.8038857e-09
4.3579325e-12
-2.9370175e-09
1.9975661e-12
-1.714104e-09
7.2830588e-13
-9.2296277e-10
1.4962523e-13
-4.2028752e-10
-1.0923937e-10
-1.510333e-08
-4.3458504e-05
-2.3990427e-08
-3.5764823e-05
-2.0004679e-08
-2.80669e-05
-8.0049261e-09
-2.0258833e-05
2.1315328e-09
-1.3768723e-05
7.2084932e-09
-9.1134393e-06
8.5550966e-09
-6.0692251e-06
7.9451063e-09
-4.1141385e-06
6.5240695e-09
-2.8599933e-06
5.0013965e-09
-2.0187038e-06
3.7019272e-09
-1.4057572e-06
2.7008754e-09
-9.5581595e-07
1.9610097e-09
-6.5349407e-07
1.3891913e-09
-4.5157911e-07
9.5016238e-10
-3.1020702e-07
6.3454268e-10
-2.1068628e-07
4.1617382e-10
-1.420743e-07
2.6869259e-10
-9.5229588e-08
1.7109755e-10
-6.3455154e-08
1.0788614e-10
-4.2079538e-08
6.7208933e-11
-2.7783273e-08
4.1254254e-11
-1.8237216e-08
2.4726269e-11
-1.1865864e-08
1.435533e-11
-7.6190883e-09
7.9268322e-12
-4.7974462e-09
4.062347e-12
-2.9331349e-09
1.8422399e-12
-1.7118638e-09
6.6614722e-13
-9.2176767e-10
1.3948745e-13
-4.1974737e-10
-1.0909989e-10
-1.5185508e-08
-4.3443318e-05
-2.4100939e-08
-3.5755907e-05
-2.0095444e-08
-2.8070906e-05
-8.0184182e-09
-2.027091e-05
2.222738e-09
-1.3778964e-05
7.3415175e-09
-9.1185581e-06
8.6827128e-09
-6.0705663e-06
8.054296e-09
-4.1135101e-06
6.6167091e-09
-2.8585558e-06
5.0795681e-09
-2.0171666e-06
3.7639491e-09
-1.4044416e-06
2.7479571e-09
-9.5479988e-07
1.9965967e-09
-6.5274279e-07
1.4163009e-09
-4.5099874e-07
9.7079531e-10
-3.0976159e-07
6.500108e-10
-2.1036542e-07
4.2760393e-10
-1.4185195e-07
2.7703002e-10
-9.5078947e-08
1.7709851e-10
-6.3355263e-08
1.1213228e-10
-4.2014519e-08
7.0161583e-11
-2.7741318e-08
4.3255822e-11
-1.8210269e-08
2.6047136e-11
-1.1848655e-08
1.5194126e-11
-7.6082085e-09
8.4336003e-12
-4.7906816e-09
4.3556069e-12
-2.9290412e-09
1.9855371e-12
-1.7094943e-09
7.2074065e-13
-9.2050015e-10
1.4854933e-13
-4.1917324e-10
-1.0895134e-10
-1.5221532e-08
-4.3428097e-05
-2.4155269e-08
-3.5746973e-05
-2.0166034e-08
-2.8074895e-05
-8.0508054e-09
-2.0283025e-05
2.2626883e-09
-1.3789277e-05
7.4156293e-09
-9.123711e-06
8.7588904e-09
-6.0719096e-06
8.1213925e-09
-4.1128725e-06
6.6747133e-09
-2.8571092e-06
5.1291491e-09
-2.015621e-06
3.8035431e-09
-1.4031161e-06
2.777902e-09
-9.5377418e-07
2.0190577e-09
-6.5198403e-07
1.4332276e-09
-4.5041285e-07
9.8339634e-10
-3.0931183e-07
6.5920258e-10
-2.1004116e-07
4.3416368e-10
-1.4162697e-07
2.8159256e-10
-9.4926319e-08
1.8021445e-10
-6.3253919e-08
1.1421113e-10
-4.194847e-08
7.1519979e-11
-2.7698644e-08
4.4113705e-11
-1.8182834e-08
2.6573109e-11
-1.1831123e-08
1.5499066e-11
-7.5971172e-09
8.6007624e-12
-4.7837824e-09
4.4295848e-12
-2.9248645e-09
2.0196194e-12
-1.707076e-09
7.328653e-13
-9.1920627e-10
1.5171151e-13
-4.1858703e-10
-1.0879963e-10
-1.523115e-08
-4.3412865e-05
-2.4181151e-08
-3.5738023e-05
-2.0229879e-08
-2.8078846e-05
-8.0972385e-09
-2.0295158e-05
2.2695598e-09
-1.3799644e-05
7.4538511e-09
-9.1288953e-06
8.8033211e-09
-6.0732591e-06
8.1617737e-09
-4.1122309e-06
6.7102906e-09
-2.8556578e-06
5.1599045e-09
-2.0140705e-06
3.8281281e-09
-1.4017844e-06
2.796376e-09
-9.5274237e-07
2.0328326e-09
-6.5122055e-07
1.4435242e-09
-4.4982348e-07
9.9107318e-10
-3.0885944e-07
6.6482363e-10
-2.0971485e-07
4.3821212e-10
-1.414004e-07
2.8444989e-10
-9.4772493e-08
1.8221297e-10
-6.3151707e-08
1.15579e-10
-4.1881789e-08
7.2446613e-11
-2.7655522e-08
4.4727752e-11
-1.8155085e-08
2.6977057e-11
-1.1813375e-08
1.5755575e-11
-7.5858819e-09
8.7601063e-12
-4.7767894e-09
4.5314081e-12
-2.9206288e-09
2.0696778e-12
-1.7046224e-09
7.5224286e-13
-9.1789306e-10
1.54065e-13
-4.1799186e-10
-1.0864556e-10
-1.5225679e-08
-4.339764e-05
-2.4192794e-08
-3.5729056e-05
-2.0291857e-08
-2.8082747e-05
-8.1544185e-09
-2.0307295e-05
2.2539119e-09
-1.3810053e-05
7.4685297e-09
-9.1341099e-06
8.8269598e-09
-6.0746176e-06
8.1848246e-09
-4.1115888e-06
6.7310851e-09
-2.8542041e-06
5.1780781e-09
-2.0125175e-06
3.8426677e-09
-1.4004491e-06
2.8072307e-09
-9.5170688e-07
2.0407473e-09
-6.5045414e-07
1.4493117e-09
-4.49232e-07
9.9543611e-10
-3.0840563e-07
6.6805578e-10
-2.0938743e-07
4.4055709e-10
-1.4117297e-07
2.8609975e-10
-9.4618001e-08
1.8334363e-10
-6.3048994e-08
1.1632465e-10
-4.1814736e-08
7.2912486e-11
-2.7612132e-08
4.5000713e-11
-1.8127146e-08
2.7116001e-11
-1.1795495e-08
1.5814213e-11
-7.5745574e-09
8.7718621e-12
-4.769738e-09
4.5144679e-12
-2.9163562e-09
2.0549952e-12
-1.7021467e-09
7.4529205e-13
-9.1656767e-10
1.5557123e-13
-4.17391e-10
-1.0848999e-10
-1.5211803e-08
-4.3382428e-05
-2.4197213e-08
-3.5720071e-05
-2.0355472e-08
-2.8086589e-05
-8.2201495e-09
-2.031943e-05
2.2229142e-09
-1.3820496e-05
7.4676366e-09
-9.1393546e-06
8.836888e-09
-6.0759869e-06
8.1965712e-09
-4.1109484e-06
6.7421219e-09
-2.8527497e-06
5.1878372e-09
-2.0109632e-06
3.8504614e-09
-1.3991117e-06
2.8129445e-09
-9.5066932e-07
2.0447096e-09
-6.4968597e-07
1.4521685e-09
-4.4863941e-07
9.9757197e-10
-3.079511e-07
6.6966955e-10
-2.0905948e-07
4.4177001e-10
-1.4094512e-07
2.8701355e-10
-9.44632e-08
1.8401604e-10
-6.2946031e-08
1.168086e-10
-4.1747491e-08
7.3262039e-11
-2.7568599e-08
4.5248933e-11
-1.8099101e-08
2.7293791e-11
-1.177754e-08
1.5938745e-11
-7.5631806e-09
8.85689e-12
-4.7626516e-09
4.5750702e-12
-2.9120614e-09
2.087482e-12
-1.6996576e-09
7.582065e-13
-9.1523482e-10
1.5646615e-13
-4.1678673e-10
-1.0833352e-10
-1.5193368e-08
-4.3367234e-05
-2.4197885e-08
-3.5711066e-05
-2.0421211e-08
-2.8090366e-05
-8.292151e-09
-2.033156e-05
2.1806875e-09
-1.3830969e-05
7.4559854e-09
-9.1446299e-06
8.8371953e-09
-6.0773681e-06
8.2003971e-09
-4.1103116e-06
6.746391e-09
-2.8512958e-06
5.1918271e-09
-2.0094085e-06
3.8536634e-09
-1.3977736e-06
2.81513e-09
-9.4963075e-07
2.0461109e-09
-6.4891701e-07
1.4531493e-09
-4.4804641e-07
9.9832024e-10
-3.0749633e-07
6.702886e-10
-2.087314e-07
4.4229047e-10
-1.4071717e-07
2.8743997e-10
-9.4308309e-08
1.8436377e-10
-6.2842984e-08
1.170779e-10
-4.1680171e-08
7.346094e-11
-2.7524997e-08
4.5384452e-11
-1.8071002e-08
2.7381657e-11
-1.1759543e-08
1.5989441e-11
-7.5517739e-09
8.8835518e-12
-4.7555441e-09
4.580565e-12
-2.9077527e-09
2.0901383e-12
-1.69716e-09
7.5896648e-13
-9.1389713e-10
1.5707237e-13
-4.1618021e-10
-1.0817645e-10
-1.5172662e-08
-4.3352062e-05
-2.4197115e-08
-3.5702042e-05
-2.0488936e-08
-2.8094074e-05
-8.3689779e-09
-2.034368e-05
2.1307095e-09
-1.3841468e-05
7.4368627e-09
-9.149936e-06
8.831299e-09
-6.0787626e-06
8.198741e-09
-4.109679e-06
6.7459552e-09
-2.849843e-06
5.1918418e-09
-2.0078544e-06
3.8537027e-09
-1.3964355e-06
2.8148873e-09
-9.4859189e-07
2.0456964e-09
-6.4814788e-07
1.4527102e-09
-4.4745338e-07
9.9807083e-10
-3.0704174e-07
6.7018585e-10
-2.0840347e-07
4.4229092e-10
-1.4048931e-07
2.8749402e-10
-9.4153466e-08
1.8445634e-10
-6.2739968e-08
1.1717557e-10
-4.1612855e-08
7.3552604e-11
-2.7481382e-08
4.5460727e-11
-1.8042886e-08
2.7447711e-11
-1.1741532e-08
1.6040809e-11
-7.5403552e-09
8.9238235e-12
-4.748428e-09
4.6149753e-12
-2.9034378e-09
2.1085344e-12
-1.6946583e-09
7.6645558e-13
-9.1255718e-10
1.5736143e-13
-4.1557262e-10
-1.0801909e-10
-1.5150765e-08
-4.3336911e-05
-2.4196058e-08
-3.5692996e-05
-2.0557621e-08
-2.8097712e-05
-8.449227e-09
-2.0355788e-05
2.074784e-09
-1.3851992e-05
7.4124485e-09
-9.1552737e-06
8.8207135e-09
-6.0801709e-06
8.1931299e-09
-4.1090514e-06
6.7422342e-09
-2.8483922e-06
5.1891633e-09
-2.0063013e-06
3.8516549e-09
-1.3950981e-06
2.8131527e-09
-9.4755336e-07
2.0441057e-09
-6.4737889e-07
1.4513317e-09
-4.4686057e-07
9.970974e-10
-3.0658757e-07
6.6955584e-10
-2.080759e-07
4.4190722e-10
-1.4026171e-07
2.872644e-10
-9.3998796e-08
1.8432242e-10
-6.2637063e-08
1.1709139e-10
-4.1545597e-08
7.3486903e-11
-2.7437797e-08
4.5405634e-11
-1.8014783e-08
2.7392724e-11
-1.1723525e-08
1.5992347e-11
-7.5289372e-09
8.8814969e-12
-4.7413113e-09
4.5769643e-12
-2.8991219e-09
2.0862039e-12
-1.6921558e-09
7.5721392e-13
-9.1121665e-10
1.5747048e-13
-4.1496469e-10
-1.0786162e-10
-1.5127955e-08
-4.3321783e-05
-2.419448e-08
-3.568393e-05
-2.062755e-08
-2.8101279e-05
-8.5320771e-09
-2.0367883e-05
2.014392e-09
-1.3862539e-05
7.3839855e-09
-9.1606433e-06
8.806624e-09
-6.0815936e-06
8.1847449e-09
-4.1084295e-06
6.7361732e-09
-2.8469436e-06
5.1845482e-09
-2.0047497e-06
3.8480857e-09
-1.3937617e-06
2.8102838e-09
-9.4651553e-07
2.0416249e-09
-6.4661028e-07
1.4493779e-09
-4.4626829e-07
9.9564842e-10
-3.0613389e-07
6.6857263e-10
-2.0774879e-07
4.412809e-10
-1.4003447e-07
2.8690162e-10
-9.3844383e-08
1.8412595e-10
-6.2534315e-08
1.1699199e-10
-4.1478434e-08
7.345276e-11
-2.7394269e-08
4.5403836e-11
-1.798671e-08
2.7411779e-11
-1.1705533e-08
1.6017511e-11
-7.5175271e-09
8.9075659e-12
-4.7341986e-09
4.6030681e-12
-2.894808e-09
2.1017863e-12
-1.6896542e-09
7.637592e-13
-9.0987657e-10
1.5742916e-13
-4.143569e-10
-1.0770419e-10
-1.510434e-08
-4.3306679e-05
-2.4191849e-08
-3.5674842e-05
-2.0698685e-08
-2.8104773e-05
-8.6171948e-09
-2.0379965e-05
1.9507958e-09
-1.3873107e-05
7.3526772e-09
-9.1660451e-06
8.7900428e-09
-6.083031e-06
8.1743734e-09
-4.1078138e-06
6.7284067e-09
-2.8454977e-06
5.1785114e-09
-2.0031997e-06
3.8433743e-09
-1.3924266e-06
2.806503e-09
-9.4547863e-07
2.038546e-09
-6.4584237e-07
1.4469845e-09
-4.456767e-07
9.9395348e-10
-3.056809e-07
6.6742845e-10
-2.0742223e-07
4.4055074e-10
-1.3980762e-07
2.8645647e-10
-9.3690259e-08
1.8387535e-10
-6.2431756e-08
1.1685519e-10
-4.1411389e-08
7.3383684e-11
-2.7350809e-08
4.5366945e-11
-1.7958677e-08
2.7391687e-11
-1.1687563e-08
1.600377e-11
-7.506129e-09
8.8977803e-12
-4.7270923e-09
4.5912162e-12
-2.8904977e-09
2.0964099e-12
-1.6871544e-09
7.6163865e-13
-9.0853731e-10
1.5735263e-13
-4.1374943e-10
-1.0754684e-10
-1.5080087e-08
-4.3291599e-05
-2.4188277e-08
-3.5665734e-05
-2.0769948e-08
-2.8108191e-05
-8.7032094e-09
-2.0392032e-05
1.8845232e-09
-1.3883695e-05
7.319201e-09
-9.1714798e-06
8.7715743e-09
-6.0844834e-06
8.1623393e-09
-4.1072046e-06
6.7193142e-09
-2.8440547e-06
5.1714022e-09
-2.0016518e-06
3.8378292e-09
-1.391093e-06
2.8020929e-09
-9.4444287e-07
2.0350205e-09
-6.4507534e-07
1.444185e-09
-4.4508584e-07
9.9194938e-10
-3.052287e-07
6.6606054e-10
-2.0709631e-07
4.3965409e-10
-1.3958125e-07
2.8588278e-10
-9.3536453e-08
1.8353558e-10
-6.2329425e-08
1.166598e-10
-4.1344487e-08
7.3279566e-11
-2.7307435e-08
4.5314686e-11
-1.7930696e-08
2.7375496e-11
-1.1669625e-08
1.6003464e-11
-7.4947498e-09
8.9070377e-12
-4.7199969e-09
4.6064593e-12
-2.8861937e-09
2.105653e-12
-1.6846582e-09
7.6561115e-13
-9.0719985e-10
1.5713797e-13
-4.1314279e-10
-1.073897e-10
-1.5055013e-08
-4.3276543e-05
-2.4184257e-08
-3.5656605e-05
-2.0840709e-08
-2.8111534e-05
-8.79012e-09
-2.0404082e-05
1.8166796e-09
-1.3894301e-05
7.2842829e-09
-9.1769474e-06
8.752036e-09
-6.0859511e-06
8.1492052e-09
-4.1066017e-06
6.7093292e-09
-2.8426149e-06
5.1635778e-09
-2.000106e-06
3.8317937e-09
-1.3897613e-06
2.7973984e-09
-9.4340845e-07
2.0312267e-09
-6.4430921e-07
1.4411989e-09
-4.4449579e-07
9.8974799e-10
-3.047773e-07
6.6453248e-10
-2.0677108e-07
4.3863302e-10
-1.3935539e-07
2.8521406e-10
-9.3383016e-08
1.831039e-10
-6.2227346e-08
1.1638238e-10
-4.1277746e-08
7.3086949e-11
-2.7264158e-08
4.518221e-11
-1.7902774e-08
2.7274238e-11
-1.1651723e-08
1.5931368e-11
-7.4833926e-09
8.8528682e-12
-4.7129146e-09
4.5655359e-12
-2.8818972e-09
2.0824498e-12
-1.6821662e-09
7.5616088e-13
-9.0586457e-10
1.5689744e-13
-4.1253714e-10
-1.072328e-10
-1.5028882e-08
-4.3261515e-05
-2.4179249e-08
-3.5647455e-05
-2.0910531e-08
-2.8114803e-05
-8.8773486e-09
-2.0416115e-05
1.7472243e-09
-1.3904926e-05
7.2480359e-09
-9.1824482e-06
8.7311277e-09
-6.0874342e-06
8.135173e-09
-4.1060058e-06
6.6986395e-09
-2.8411784e-06
5.1551509e-09
-1.9985625e-06
3.8252808e-09
-1.3884315e-06
2.7923498e-09
-9.4237551e-07
2.0271312e-09
-6.4354403e-07
1.4380464e-09
-4.4390669e-07
9.8744512e-10
-3.0432673e-07
6.6293323e-10
-2.0644655e-07
4.3756698e-10
-1.3913006e-07
2.84544e-10
-9.3229969e-08
1.8269662e-10
-6.2125522e-08
1.1614054e-10
-4.1211167e-08
7.295631e-11
-2.7220983e-08
4.5114854e-11
-1.7874914e-08
2.7249242e-11
-1.1633859e-08
1.5926779e-11
-7.4720577e-09
8.8599613e-12
-4.7058458e-09
4.5784347e-12
-2.8776083e-09
2.0911613e-12
-1.6796785e-09
7.5996287e-13
-9.0453156e-10
1.5663245e-13
-4.1193252e-10
-1.0707617e-10
-1.5001662e-08
-4.3246513e-05
-2.4172417e-08
-3.5638284e-05
-2.0980141e-08
-2.8117995e-05
-8.964762e-09
-2.0428131e-05
1.6767485e-09
-1.3915567e-05
7.2109126e-09
-9.1879824e-06
8.7094636e-09
-6.0889328e-06
8.1205839e-09
-4.1054169e-06
6.6874544e-09
-2.8397452e-06
5.1462727e-09
-1.9970213e-06
3.8183909e-09
-1.3871036e-06
2.7869638e-09
-9.4134406e-07
2.0228584e-09
-6.4277995e-07
1.434763e-09
-4.4331857e-07
9.8511421e-10
-3.0387712e-07
6.6133434e-10
-2.0612274e-07
4.3651112e-10
-1.3890526e-07
2.838706e-10
-9.3077308e-08
1.8228633e-10
-6.2023957e-08
1.1589326e-10
-4.1144756e-08
7.2814882e-11
-2.7177916e-08
4.5031865e-11
-1.7847119e-08
2.7201408e-11
-1.1616033e-08
1.5897801e-11
-7.4607463e-09
8.8428674e-12
-4.698791e-09
4.5651667e-12
-2.8733277e-09
2.0852679e-12
-1.6771953e-09
7.5776069e-13
-9.0320091e-10
1.5638153e-13
-4.1132892e-10
-1.0691979e-10
-1.497344e-08
-4.3231539e-05
-2.416346e-08
-3.5629094e-05
-2.1048801e-08
-2.812111e-05
-9.0523234e-09
-2.0440127e-05
1.6057813e-09
-1.3926226e-05
7.1732296e-09
-9.1935498e-06
8.6872378e-09
-6.0904468e-06
8.1054178e-09
-4.1048351e-06
6.675797e-09
-2.8383156e-06
5.1370369e-09
-1.9954826e-06
3.8112631e-09
-1.3857779e-06
2.7814213e-09
-9.403142e-07
2.0185082e-09
-6.4201707e-07
1.4313184e-09
-4.4273136e-07
9.8259124e-10
-3.0342842e-07
6.595811e-10
-2.0579971e-07
4.3533787e-10
-1.3868104e-07
2.831004e-10
-9.2925046e-08
1.8180658e-10
-6.1922676e-08
1.1559962e-10
-4.107853e-08
7.264336e-11
-2.7134964e-08
4.4933801e-11
-1.7819397e-08
2.7152785e-11
-1.1598253e-08
1.5874954e-11
-7.449463e-09
8.836527e-12
-4.6917533e-09
4.5688176e-12
-2.8690573e-09
2.0884587e-12
-1.6747179e-09
7.5937352e-13
-9.0187336e-10
1.5602689e-13
-4.1072666e-10
-1.0676376e-10
-1.4944244e-08
-4.3216595e-05
-2.4152761e-08
-3.5619885e-05
-2.1115954e-08
-2.8124147e-05
-9.1390343e-09
-2.0452104e-05
1.534125e-09
-1.3936899e-05
7.1351319e-09
-9.1991508e-06
8.6646365e-09
-6.0919764e-06
8.0897974e-09
-4.1042602e-06
6.6637895e-09
-2.8368897e-06
5.1275521e-09
-1.9939463e-06
3.8039668e-09
-1.3844543e-06
2.7758107e-09
-9.3928604e-07
2.0140377e-09
-6.4125533e-07
1.427864e-09
-4.4214518e-07
9.8003327e-10
-3.0298062e-07
6.5779162e-10
-2.0547746e-07
4.341338e-10
-1.3845741e-07
2.8230982e-10
-9.277321e-08
1.8130133e-10
-6.1821692e-08
1.1528005e-10
-4.1012496e-08
7.2431359e-11
-2.709213e-08
4.4795562e-11
-1.7791749e-08
2.705579e-11
-1.1580519e-08
1.5810353e-11
-7.438208e-09
8.7915154e-12
-4.6847328e-09
4.5374473e-12
-2.8647973e-09
2.0713991e-12
-1.6722464e-09
7.5256875e-13
-9.0054894e-10
1.5567041e-13
-4.1012579e-10
-1.0660809e-10
-1.491398e-08
-4.3201681e-05
-2.41407e-08
-3.5610659e-05
-2.1181065e-08
-2.8127107e-05
-9.2255696e-09
-2.046406e-05
1.46254e-09
-1.3947587e-05
7.0967892e-09
-9.2047851e-06
8.6416773e-09
-6.0935213e-06
8.0739592e-09
-4.1036925e-06
6.6515319e-09
-2.8354673e-06
5.1178251e-09
-1.9924126e-06
3.7964621e-09
-1.383133e-06
2.770039e-09
-9.382596e-07
2.009409e-09
-6.4049472e-07
1.4243042e-09
-4.4156006e-07
9.7747623e-10
-3.0253382e-07
6.5600752e-10
-2.0515597e-07
4.3292697e-10
-1.3823436e-07
2.8153447e-10
-9.26218e-08
1.8081721e-10
-6.1720992e-08
1.149841e-10
-4.0946647e-08
7.2259031e-11
-2.7049413e-08
4.4696719e-11
-1.7764174e-08
2.700676e-11
-1.1562831e-08
1.5788084e-11
-7.426981e-09
8.7852241e-12
-4.6777289e-09
4.5398935e-12
-2.8605471e-09
2.074292e-12
-1.6697807e-09
7.539874e-13
-8.9922748e-10
1.5531103e-13
-4.095263e-10
-1.0645278e-10
-1.4882467e-08
-4.3186799e-05
-2.4126532e-08
-3.5601414e-05
-2.1244759e-08
-2.8129988e-05
-9.3112129e-09
-2.0475993e-05
1.3904708e-09
-1.3958289e-05
7.0581068e-09
-9.2104527e-06
8.6181821e-09
-6.0950813e-06
8.0578722e-09
-4.1031322e-06
6.6390435e-09
-2.8340484e-06
5.1079147e-09
-1.9908815e-06
3.7888378e-09
-1.3818139e-06
2.7641689e-09
-9.3723492e-07
2.0048088e-09
-6.3973539e-07
1.4207528e-09
-4.4097599e-07
9.7491667e-10
-3.0208801e-07
6.5424065e-10
-2.0483528e-07
4.3174559e-10
-1.3801189e-07
2.8076964e-10
-9.247081e-08
1.8033833e-10
-6.1620576e-08
1.146883e-10
-4.0880984e-08
7.2083637e-11
-2.7006817e-08
4.4591657e-11
-1.7736674e-08
2.6945457e-11
-1.1545189e-08
1.575212e-11
-7.4157827e-09
8.7649146e-12
-4.6707425e-09
4.526605e-12
-2.8563071e-09
2.0684618e-12
-1.6673207e-09
7.5180705e-13
-8.9790902e-10
1.5496718e-13
-4.0892818e-10
-1.0629781e-10
-1.4849725e-08
-4.3171949e-05
-2.41097e-08
-3.5592154e-05
-2.1307576e-08
-2.8132791e-05
-9.3966924e-09
-2.0487904e-05
1.3184825e-09
-1.3969004e-05
7.0193673e-09
-9.2161536e-06
8.594742e-09
-6.0966567e-06
8.0416151e-09
-4.102579e-06
6.6264291e-09
-2.8326333e-06
5.0979404e-09
-1.989353e-06
3.7812e-09
-1.3804972e-06
2.7583078e-09
-9.3621202e-07
2.000247e-09
-6.3897735e-07
1.4171725e-09
-4.403929e-07
9.7224706e-10
-3.0164311e-07
6.5236732e-10
-2.0451539e-07
4.3048225e-10
-1.3779002e-07
2.7993273e-10
-9.2320242e-08
1.798066e-10
-6.1520459e-08
1.143551e-10
-4.0815519e-08
7.1883983e-11
-2.6964349e-08
4.4473432e-11
-1.7709255e-08
2.688166e-11
-1.1527598e-08
1.5718514e-11
-7.4046161e-09
8.7511122e-12
-4.6637758e-09
4.524149e-12
-2.8520787e-09
2.0683684e-12
-1.6648673e-09
7.5205385e-13
-8.9659409e-10
1.5455562e-13
-4.0833166e-10
-1.0614325e-10
-1.4815931e-08
-4.3157133e-05
-2.4090682e-08
-3.558288e-05
-2.1368826e-08
-2.8135512e-05
-9.4814094e-09
-2.0499792e-05
1.246712e-09
-1.3979732e-05
6.9806999e-09
-9.2218876e-06
8.5711561e-09
-6.0982472e-06
8.0251398e-09
-4.102033e-06
6.6136565e-09
-2.8312218e-06
5.0878683e-09
-1.9878272e-06
3.7735259e-09
-1.3791829e-06
2.7524465e-09
-9.3519093e-07
1.9955962e-09
-6.3822053e-07
1.413603e-09
-4.398109e-07
9.6965162e-10
-3.0119918e-07
6.5055005e-10
-2.0419628e-07
4.2925304e-10
-1.3756875e-07
2.7912317e-10
-9.2170105e-08
1.7928624e-10
-6.1420645e-08
1.1402484e-10
-4.0750249e-08
7.1665969e-11
-2.6922005e-08
4.4333774e-11
-1.7681914e-08
2.6785642e-11
-1.1510056e-08
1.5656866e-11
-7.3934801e-09
8.7095817e-12
-4.656828e-09
4.4971474e-12
-2.8478617e-09
2.0538294e-12
-1.6624204e-09
7.4633993e-13
-8.9528268e-10
1.5415982e-13
-4.077367e-10
-1.0598909e-10
-1.4781162e-08
-4.3142352e-05
-2.4070203e-08
-3.5573591e-05
-2.1427896e-08
-2.8138155e-05
-9.5650596e-09
-2.0511655e-05
1.1749435e-09
-1.3990472e-05
6.9420188e-09
-9.2276547e-06
8.5475313e-09
-6.0998527e-06
8.0087088e-09
-4.1014942e-06
6.6008334e-09
-2.8298139e-06
5.0777326e-09
-1.9863041e-06
3.7657766e-09
-1.3778709e-06
2.7465231e-09
-9.3417167e-07
1.990869e-09
-6.3746489e-07
1.409998e-09
-4.3923002e-07
9.6707149e-10
-3.0075628e-07
6.4875188e-10
-2.0387795e-07
4.2802854e-10
-1.3734805e-07
2.7832849e-10
-9.2020393e-08
1.7878453e-10
-6.1321118e-08
1.1371464e-10
-4.0685167e-08
7.1478748e-11
-2.6879777e-08
4.4222908e-11
-1.7654648e-08
2.672546e-11
-1.1492561e-08
1.5625071e-11
-7.3823731e-09
8.6957624e-12
-4.6498982e-09
4.4935649e-12
-2.8436558e-09
2.0533223e-12
-1.6599798e-09
7.4643703e-13
-8.9397465e-10
1.5377113e-13
-4.0714322e-10
-1.0583532e-10
-1.474529e-08
-4.3127607e-05
-2.4048139e-08
-3.5564288e-05
-2.1485172e-08
-2.8140718e-05
-9.6483282e-09
-2.0523491e-05
1.1038522e-09
-1.4001224e-05
6.9034391e-09
-9.2334543e-06
8.5237095e-09
-6.101473e-06
7.9922867e-09
-4.1009628e-06
6.5880464e-09
-2.8284097e-06
5.0676369e-09
-1.9847837e-06
3.7580562e-09
-1.3765614e-06
2.7406566e-09
-9.3315426e-07
1.9863199e-09
-6.3671058e-07
1.4064591e-09
-4.3865015e-07
9.6447881e-10
-3.0031432e-07
6.4695646e-10
-2.0356042e-07
4.2682714e-10
-1.3712794e-07
2.7755e-10
-9.1871106e-08
1.7829537e-10
-6.1221877e-08
1.134133e-10
-4.0620276e-08
7.1298891e-11
-2.6837671e-08
4.4115015e-11
-1.7627458e-08
2.6663262e-11
-1.1475113e-08
1.5589551e-11
-7.3712958e-09
8.6763267e-12
-4.6429861e-09
4.4822086e-12
-2.8394604e-09
2.0486217e-12
-1.6575454e-09
7.4477347e-13
-8.9266982e-10
1.5340646e-13
-4.0655115e-10
-1.0568192e-10
-1.4708299e-08
-4.3112898e-05
-2.4023883e-08
-3.5554972e-05
-2.154144e-08
-2.81432e-05
-9.7304664e-09
-2.0535302e-05
1.0325249e-09
-1.4011987e-05
6.8648153e-09
-9.2392866e-06
8.4998881e-09
-6.1031081e-06
7.9757349e-09
-4.1004386e-06
6.5752273e-09
-2.8270092e-06
5.0575232e-09
-1.9832659e-06
3.7503646e-09
-1.3752542e-06
2.7348085e-09
-9.321387e-07
1.981788e-09
-6.3595758e-07
1.4029235e-09
-4.3807128e-07
9.618477e-10
-2.9987327e-07
6.4510909e-10
-2.0324366e-07
4.2558567e-10
-1.3690843e-07
2.7673005e-10
-9.1722237e-08
1.7777344e-10
-6.1122929e-08
1.1308523e-10
-4.0555576e-08
7.1100842e-11
-2.679569e-08
4.3996104e-11
-1.7600347e-08
2.6596964e-11
-1.1457715e-08
1.5553187e-11
-7.3602491e-09
8.6589393e-12
-4.6360924e-09
4.4758098e-12
-2.835276e-09
2.0462449e-12
-1.6551172e-09
7.4403364e-13
-8.9136828e-10
1.5301004e-13
-4.0596061e-10
-1.0552891e-10
-1.4670323e-08
-4.3098228e-05
-2.3997415e-08
-3.5545645e-05
-2.1596743e-08
-2.8145601e-05
-9.8124989e-09
-2.0547087e-05
9.6185109e-10
-1.4022761e-05
6.8264216e-09
-9.2451511e-06
8.4762006e-09
-6.1047579e-06
7.9591251e-09
-4.0999215e-06
6.5623661e-09
-2.8256125e-06
5.0473815e-09
-1.981751e-06
3.7426887e-09
-1.3739496e-06
2.7289774e-09
-9.3112498e-07
1.9771693e-09
-6.3520579e-07
1.3993846e-09
-4.3749349e-07
9.5932952e-10
-2.9943324e-07
6.4335673e-10
-2.0292769e-07
4.2440631e-10
-1.366895e-07
2.7595947e-10
-9.1573787e-08
1.7728562e-10
-6.1024274e-08
1.1277902e-10
-4.0491065e-08
7.0906832e-11
-2.675383e-08
4.3875407e-11
-1.757331e-08
2.651852e-11
-1.1440364e-08
1.5505081e-11
-7.3492316e-09
8.6287489e-12
-4.6292169e-09
4.4573887e-12
-2.8311022e-09
2.0368015e-12
-1.6526952e-09
7.4035714e-13
-8.9006994e-10
1.5263558e-13
-4.0537154e-10
-1.0537627e-10
-1.4631501e-08
-4.3083596e-05
-2.3969435e-08
-3.5536307e-05
-2.1650679e-08
-2.814792e-05
-9.8935501e-09
-2.0558844e-05
8.9152377e-10
-1.4033547e-05
6.7881126e-09
-9.2510477e-06
8.4523783e-09
-6.1064222e-06
7.9425821e-09
-4.0994117e-06
6.5495122e-09
-2.8242194e-06
5.0372353e-09
-1.9802387e-06
3.7349844e-09
-1.3726473e-06
2.7231185e-09
-9.3011311e-07
1.9725089e-09
-6.344552e-07
1.3958343e-09
-4.3691681e-07
9.5675523e-10
-2.9899418e-07
6.4155969e-10
-2.0261249e-07
4.2317462e-10
-1.3647114e-07
2.7515388e-10
-9.1425758e-08
1.7677479e-10
-6.0925909e-08
1.1245993e-10
-4.0426743e-08
7.0712023e-11
-2.6712089e-08
4.3757965e-11
-1.754635e-08
2.6451758e-11
-1.142306e-08
1.5467742e-11
-7.3382435e-09
8.6102938e-12
-4.6223596e-09
4.449517e-12
-2.8269391e-09
2.0336678e-12
-1.6502792e-09
7.3932012e-13
-8.8877488e-10
1.5225449e-13
-4.0478397e-10
-1.0522402e-10
-1.4591896e-08
-4.3069005e-05
-2.3940701e-08
-3.5526958e-05
-2.1702587e-08
-2.8150158e-05
-9.9739578e-09
-2.0570572e-05
8.2156925e-10
-1.4044342e-05
6.7499106e-09
-9.2569761e-06
8.4285716e-09
-6.1081008e-06
7.9261432e-09
-4.0989093e-06
6.5367128e-09
-2.82283e-06
5.0271259e-09
-1.9787291e-06
3.7273397e-09
-1.3713475e-06
2.7173508e-09
-9.2910312e-07
1.9680583e-09
-6.3370592e-07
1.3923582e-09
-4.363411e-07
9.5415791e-10
-2.9855599e-07
6.3974136e-10
-2.0229806e-07
4.2195006e-10
-1.3625336e-07
2.7435491e-10
-9.1278157e-08
1.7626943e-10
-6.0827835e-08
1.1214864e-10
-4.0362617e-08
7.0523538e-11
-2.6670471e-08
4.3645499e-11
-1.7519469e-08
2.6386954e-11
-1.1405806e-08
1.5431114e-11
-7.327286e-09
8.5909059e-12
-4.615521e-09
4.4393733e-12
-2.8227873e-09
2.0296021e-12
-1.6478696e-09
7.3794332e-13
-8.874832e-10
1.5187524e-13
-4.0419789e-10
-1.0507214e-10
-1.4551461e-08
-4.3054453e-05
-2.3910788e-08
-3.5517599e-05
-2.1753398e-08
-2.8152315e-05
-1.0054174e-08
-2.0582272e-05
7.5234368e-10
-1.4055149e-05
6.7119448e-09
-9.2629357e-06
8.404795e-09
-6.1097937e-06
7.9095943e-09
-4.0984141e-06
6.5238521e-09
-2.8214443e-06
5.0169751e-09
-1.9772222e-06
3.7196706e-09
-1.3700503e-06
2.7115549e-09
-9.28095e-07
1.9635623e-09
-6.3295795e-07
1.3888529e-09
-4.3576639e-07
9.5159104e-10
-2.9811875e-07
6.3792962e-10
-2.019844e-07
4.2072615e-10
-1.3603617e-07
2.7354073e-10
-9.1130963e-08
1.7574355e-10
-6.0730046e-08
1.118155e-10
-4.0298682e-08
7.0318128e-11
-2.6628977e-08
4.3520051e-11
-1.7492666e-08
2.6314164e-11
-1.1388601e-08
1.5389289e-11
-7.3163597e-09
8.5690864e-12
-4.6087016e-09
4.4294635e-12
-2.8186472e-09
2.0252717e-12
-1.6454667e-09
7.3647623e-13
-8.8619509e-10
1.514679e-13
-4.0361337e-10
-1.0492067e-10
-1.4510119e-08
-4.3039943e-05
-2.3879175e-08
-3.550823e-05
-2.1803764e-08
-2.8154391e-05
-1.013377e-08
-2.0593942e-05
6.8285563e-10
-1.4065965e-05
6.6738523e-09
-9.2689267e-06
8.3811262e-09
-6.111501e-06
7.8930221e-09
-4.097926e-06
6.5109948e-09
-2.8200623e-06
5.0068734e-09
-1.9757181e-06
3.7120573e-09
-1.3687555e-06
2.7058183e-09
-9.2708876e-07
1.9590377e-09
-6.3221118e-07
1.3853923e-09
-4.3519274e-07
9.4913968e-10
-2.9768252e-07
6.3623145e-10
-2.0167149e-07
4.1958158e-10
-1.3581954e-07
2.7279205e-10
-9.0984176e-08
1.7526746e-10
-6.063254e-08
1.115154e-10
-4.023493e-08
7.0129223e-11
-2.6587604e-08
4.340343e-11
-1.7465939e-08
2.6240899e-11
-1.1371445e-08
1.534638e-11
-7.3054638e-09
8.5433158e-12
-4.6019007e-09
4.4152982e-12
-2.8145184e-09
2.0184882e-12
-1.6430703e-09
7.3396957e-13
-8.8491047e-10
1.5106707e-13
-4.0303039e-10
-1.0476961e-10
-1.4468078e-08
-4.3025475e-05
-2.3846245e-08
-3.5498852e-05
-2.1853633e-08
-2.8156383e-05
-1.0213507e-08
-2.0605582e-05
6.1432682e-10
-1.4076793e-05
6.6359413e-09
-9.2749483e-06
8.3572984e-09
-6.1132223e-06
7.8765463e-09
-4.0974453e-06
6.4981998e-09
-2.8186839e-06
4.9968194e-09
-1.9742167e-06
3.7044978e-09
-1.3674631e-06
2.7001156e-09
-9.2608438e-07
1.9545284e-09
-6.3146561e-07
1.3819523e-09
-4.3462017e-07
9.4659865e-10
-2.9724718e-07
6.3445393e-10
-2.0135934e-07
4.1835799e-10
-1.3560347e-07
2.719866e-10
-9.0837802e-08
1.7475284e-10
-6.0535319e-08
1.111882e-10
-4.0171361e-08
6.9925905e-11
-2.6546349e-08
4.327773e-11
-1.7439288e-08
2.616585e-11
-1.1354337e-08
1.5302099e-11
-7.2945979e-09
8.518691e-12
-4.5951182e-09
4.4021073e-12
-2.8104006e-09
2.0122848e-12
-1.6406805e-09
7.3164767e-13
-8.8362928e-10
1.5065216e-13
-4.02449e-10
-1.0461895e-10
-1.4425619e-08
-4.3011049e-05
-2.3812696e-08
-3.5489465e-05
-2.1902412e-08
-2.8158293e-05
-1.0292442e-08
-2.0617192e-05