/*--------------------------------*- C++ -*----------------------------------*\
| =========                 |                                                 |
| \\      /  F ield         | OpenFOAM: The Open Source CFD Toolbox           |
|  \\    /   O peration     | Version:  v2012                                 |
|   \\  /    A nd           | Website:  www.openfoam.com                      |
|    \\/     M anipulation  |                                                 |
\*---------------------------------------------------------------------------*/
FoamFile
{
    version     2.0;
    format      ascii;
    class       volScalarField;
    location    "750";
    object      rho;
}
// * * * * * * * * * * * * * * * * * * * * * * * * * * * * * * * * * * * * * //

dimensions      [1 -3 0 0 0 0 0];


internalField   nonuniform List<scalar> 
24000
(
22.182938
21.783781
20.140419
16.89509
13.1975
9.9739463
7.5869208
5.9066899
4.7688837
3.9583871
3.2868587
2.7279771
2.3385648
2.0732541
1.8751314
1.7235005
1.609435
1.5233207
1.4577144
1.4074391
1.3686432
1.3383886
1.3145347
1.2955452
1.2803085
1.2680066
1.2580257
1.2498976
1.2432599
1.2378285
22.184832
21.78814
20.15328
16.915325
13.216462
9.9871005
7.5950521
5.9108762
4.7703718
3.9584061
3.2862937
2.7272471
2.337792
2.0723855
1.8742167
1.7226249
1.6086235
1.5225788
1.4570403
1.4068248
1.3680779
1.337862
1.3140383
1.2950723
1.2798539
1.2675661
1.2575963
1.2494767
1.2428458
1.2374194
22.186761
21.792569
20.166388
16.935643
13.23534
10.000225
7.6026708
5.9144607
4.7713012
3.9580023
3.285408
2.7262047
2.3367392
2.0712948
1.8731342
1.7216244
1.607723
1.5217712
1.4563148
1.4061698
1.3674792
1.337307
1.3135169
1.2945765
1.2793777
1.267105
1.2571468
1.2490363
1.2424121
1.2369911
22.188688
21.797022
20.179471
16.955904
13.254222
10.013242
7.610076
5.9178584
4.7721365
3.9575469
3.2844623
2.7251315
2.3356981
2.0702496
1.8721265
1.7207277
1.6069443
1.5210936
1.455719
1.4056377
1.3669945
1.3368575
1.3130938
1.2941736
1.2789904
1.2667298
1.256781
1.2486779
1.2420593
1.2366426
22.190612
21.80147
20.192523
16.976131
13.273138
10.026201
7.6173636
5.9211403
4.7728828
3.9570177
3.2834406
2.7239899
2.3346036
2.069163
1.871084
1.7197965
1.6061289
1.5203767
1.4550831
1.405066
1.366472
1.3363723
1.3126369
1.2937384
1.278572
1.2663245
1.2563858
1.2482906
1.2416781
1.2362661
22.192529
21.8059
20.205526
16.996344
13.292097
10.039149
7.6245979
5.9243608
4.7735807
3.9564475
3.2823736
2.7228064
2.3334771
2.0680532
1.8700245
1.7188521
1.6053034
1.5196522
1.4544412
1.4044894
1.3659454
1.3358832
1.3121762
1.2932995
1.2781499
1.2659154
1.2559869
1.2478995
1.2412933
1.235886
22.194438
21.810304
20.218474
17.016548
13.311098
10.052107
7.6318086
5.9275479
4.7742483
3.9558496
3.2812752
2.7215926
2.3323266
2.0669251
1.8689506
1.7178959
1.6044679
1.5189193
1.4537916
1.403906
1.3654123
1.3353881
1.3117099
1.2928551
1.2777223
1.265501
1.2555828
1.2475033
1.2409034
1.2355008
22.19634
21.814678
20.231365
17.03675
13.330149
10.065091
7.6390177
5.9307185
4.7748984
3.9552346
3.2801564
2.7203591
2.331161
2.0657861
1.8678675
1.7169326
1.6036268
1.5181817
1.4531381
1.4033192
1.364876
1.3348898
1.3112405
1.2924077
1.277292
1.2650838
1.2551758
1.2471044
1.2405107
1.2351129
22.198233
21.81902
20.244201
17.056954
13.349244
10.078112
7.6462348
5.9338824
4.7755389
3.9546094
3.2790247
2.7191128
2.3299855
2.0646396
1.8667796
1.7159655
1.6027828
1.5174414
1.4524827
1.4027305
1.3643379
1.3343899
1.3107693
1.2919586
1.27686
1.264665
1.2547673
1.2467039
1.2401163
1.2347234
22.200117
21.82333
20.256984
17.077161
13.368389
10.091176
7.653469
5.9370471
4.7761749
3.9539781
3.277885
2.7178587
2.3288034
2.0634889
1.8656895
1.7149968
1.6019374
1.5167003
1.4518263
1.4021408
1.363799
1.3338891
1.3102974
1.2915087
1.2764271
1.2642454
1.2543579
1.2463026
1.2397212
1.2343331
22.201993
21.827607
20.269711
17.097377
13.387582
10.104289
7.6607258
5.9402181
4.7768103
3.9533437
3.2767408
2.7165998
2.3276177
2.0623361
1.8645979
1.7140276
1.601092
1.5159593
1.4511698
1.4015511
1.3632601
1.3333883
1.3098253
1.2910586
1.275994
1.2638255
1.2539484
1.2459011
1.2393258
1.2339426
22.20386
21.831851
20.282384
17.117598
13.406822
10.117453
7.6680072
5.9433989
4.7774475
3.9527086
3.2755946
2.7153385
2.3264307
2.061183
1.8635064
1.7130588
1.600247
1.5152188
1.4505138
1.4009619
1.3627215
1.3328877
1.3093535
1.2906088
1.275561
1.2634057
1.2535389
1.2454995
1.2389306
1.2335522
22.205719
21.836062
20.295002
17.13783
13.426113
10.130673
7.6753183
5.9465909
4.7780882
3.9520742
3.274448
2.7140764
2.3252431
2.0600299
1.8624165
1.7120914
1.5994033
1.5144793
1.4498591
1.4003737
1.3621835
1.3323877
1.3088822
1.2901594
1.2751286
1.2629863
1.2531298
1.2450983
1.2385358
1.2331621
22.207569
21.840241
20.30757
17.158068
13.445448
10.143948
7.6826583
5.9497959
4.7787337
3.9514419
3.2733023
2.7128148
2.3240556
2.0588774
1.8613277
1.7111257
1.5985613
1.5137412
1.4492056
1.3997865
1.3616467
1.3318886
1.3084117
1.2897108
1.2746968
1.2625676
1.2527212
1.2446978
1.2381414
1.2327725
22.20941
21.844387
20.320084
17.17832
13.464834
10.157283
7.6900308
5.9530155
4.7793851
3.9508123
3.2721583
2.7115542
2.3228689
2.0577268
1.8602405
1.7101617
1.5977209
1.5130051
1.4485534
1.3992005
1.361111
1.3313906
1.3079422
1.289263
1.2742658
1.2621497
1.2523134
1.2442981
1.2377478
1.2323836
22.211242
21.8485
20.332545
17.198578
13.484265
10.170676
7.6974358
5.9562511
4.780043
3.9501863
3.2710166
2.7102954
2.3216841
2.0565778
1.8591559
1.7091999
1.5968825
1.5122705
1.4479027
1.3986159
1.3605765
1.3308937
1.3074736
1.2888161
1.2738358
1.2617327
1.2519066
1.2438992
1.2373549
1.2319956
22.213066
21.852582
20.344952
17.218848
13.503743
10.184131
7.7048738
5.9595026
4.780708
3.9495641
3.2698778
2.7090386
2.3205011
2.0554308
1.8580738
1.7082407
1.5960464
1.5115378
1.4472539
1.3980329
1.3600433
1.330398
1.3070062
1.2883704
1.2734067
1.2613167
1.2515007
1.2435011
1.236963
1.2316085
22.214882
21.856631
20.357308
17.239127
13.523269
10.197646
7.7123471
5.9627705
4.7813806
3.9489463
3.2687424
2.7077845
2.3193196
2.0542854
1.8569935
1.7072837
1.5952125
1.5108071
1.446607
1.3974515
1.3595114
1.3299035
1.30654
1.2879257
1.2729786
1.2609015
1.2510957
1.2431039
1.2365721
1.2312223
22.216689
21.860646
20.369612
17.259415
13.542839
10.211225
7.7198537
5.9660557
4.7820614
3.9483331
3.2676105
2.7065332
2.3181403
2.0531431
1.855916
1.7063291
1.5943808
1.5100787
1.4459616
1.3968716
1.3589811
1.3294103
1.306075
1.2874822
1.2725517
1.2604874
1.2506917
1.2427077
1.2361821
1.230837
22.218488
21.864629
20.381863
17.279714
13.562457
10.224867
7.7273967
5.9693591
4.7827505
3.9477246
3.2664825
2.7052847
2.3169637
2.052003
1.8548417
1.7053773
1.5935513
1.5093521
1.445318
1.3962933
1.3584523
1.3289185
1.3056112
1.2870399
1.2721259
1.2600744
1.2502887
1.2423126
1.235793
1.2304526
22.220278
21.86858
20.394059
17.30002
13.582119
10.238571
7.7349739
5.9726804
4.7834481
3.9471212
3.2653585
2.7040394
2.3157895
2.0508648
1.8537695
1.7044281
1.5927244
1.5086276
1.4446765
1.3957167
1.3579249
1.3284281
1.3051486
1.2865987
1.2717013
1.2596626
1.2498868
1.2419186
1.235405
1.2300692
22.222061
21.872498
20.406202
17.320336
13.601827
10.252341
7.7425873
5.9760195
4.7841545
3.946523
3.2642388
2.7027974
2.3146174
2.0497296
1.8526998
1.7034813
1.5918998
1.5079052
1.444037
1.3951419
1.357399
1.327939
1.3046874
1.2861587
1.2712777
1.2592519
1.249486
1.2415256
1.2350179
1.2296869
22.223835
21.876385
20.418295
17.340658
13.621579
10.266173
7.7502362
5.9793771
4.7848698
3.9459302
3.2631235
2.701559
2.313448
2.0485968
1.8516337
1.7025373
1.5910774
1.5071853
1.4433992
1.3945687
1.3568746
1.3274513
1.3042275
1.28572
1.2708553
1.2588423
1.2490864
1.2411336
1.234632
1.2293057
22.225602
21.880239
20.430334
17.36099
13.641374
10.280071
7.7579205
5.9827539
4.7855941
3.9453429
3.2620127
2.700324
2.3122817
2.0474669
1.85057
1.701596
1.5902575
1.5064672
1.4427632
1.3939971
1.3563517
1.326965
1.3037688
1.2852825
1.2704341
1.2584337
1.2486877
1.2407427
1.2342472
1.2289256
22.227361
21.884062
20.442318
17.381326
13.661216
10.294033
7.7656417
5.9861495
4.7863277
3.9447614
3.2609067
2.6990926
2.3111179
2.0463386
1.8495086
1.7006573
1.5894402
1.5057512
1.4421291
1.3934272
1.3558305
1.3264801
1.3033115
1.2848462
1.2700141
1.2580263
1.2482902
1.2403528
1.2338634
1.2285464
22.229111
21.887853
20.454247
17.401671
13.681098
10.308061
7.7733976
5.9895637
4.7870705
3.9441857
3.2598055
2.6978649
2.3099564
2.0452141
1.8484503
1.6997211
1.5886251
1.5050374
1.4414972
1.392859
1.3553106
1.3259966
1.3028554
1.2844111
1.2695953
1.25762
1.2478937
1.239964
1.2334806
1.2281681
22.230855
21.891613
20.466123
17.42202
13.701026
10.322153
7.7811909
5.9929971
4.7878228
3.9436158
3.2587091
2.696641
2.3087979
2.0440918
1.8473953
1.6987877
1.5878123
1.504326
1.4408671
1.3922927
1.3547923
1.3255145
1.3024006
1.2839773
1.2691776
1.257215
1.2474983
1.2395764
1.2330988
1.2277909
22.23259
21.895342
20.477948
17.442375
13.720996
10.33631
7.7890189
5.9964504
4.7885847
3.943052
3.2576176
2.6954208
2.3076424
2.042972
1.8463423
1.697857
1.587002
1.5036165
1.4402386
1.3917279
1.3542754
1.3250337
1.3019472
1.2835446
1.2687611
1.256811
1.2471042
1.2391899
1.2327181
1.2274148
22.234319
21.89904
20.489718
17.462735
13.741008
10.350533
7.796884
5.999923
4.7893563
3.9424941
3.2565312
2.6942044
2.3064896
2.0418543
1.8452919
1.6969286
1.586194
1.5029089
1.439612
1.3911646
1.3537602
1.3245543
1.301495
1.2831133
1.2683457
1.2564081
1.2467111
1.2388043
1.2323385
1.2270399
22.23604
21.902709
20.501431
17.483098
13.761065
10.364819
7.8047843
6.0034148
4.7901375
3.9419422
3.2554498
2.6929918
2.3053391
2.0407399
1.844245
1.6960029
1.5853882
1.5022033
1.4389874
1.3906029
1.3532463
1.3240762
1.301044
1.282683
1.2679314
1.2560062
1.246319
1.2384197
1.2319599
1.2266659
22.237753
21.906346
20.51309
17.503466
13.78116
10.379171
7.8127208
6.0069263
4.7909286
3.9413966
3.2543737
2.6917831
2.3041916
2.0396281
1.8432004
1.6950798
1.5845846
1.5015001
1.4383647
1.390043
1.3527339
1.3235995
1.3005943
1.282254
1.2675184
1.2556055
1.2459279
1.2380362
1.2315824
1.2262928
22.239459
21.909954
20.524696
17.523836
13.801301
10.393587
7.8206936
6.0104582
4.7917295
3.9408571
3.2533027
2.6905784
2.3030471
2.0385181
1.8421579
1.6941591
1.5837835
1.5007988
1.4377436
1.3894848
1.3522229
1.3231242
1.3001458
1.2818261
1.2671064
1.2552058
1.2455378
1.2376536
1.2312057
1.2259207
22.241159
21.913531
20.536249
17.544209
13.821481
10.408068
7.8287014
6.0140097
4.7925404
3.9403238
3.252237
2.6893776
2.3019053
2.037411
1.8411185
1.6932409
1.5829847
1.5000994
1.4371242
1.388928
1.3517133
1.3226501
1.2996986
1.2813993
1.2666955
1.2548074
1.2451489
1.2372723
1.2308301
1.2255495
22.242851
21.917078
20.547747
17.564582
13.841705
10.422613
7.8367462
6.0175808
4.7933612
3.939797
3.2511767
2.6881807
2.3007659
2.0363065
1.8400822
1.6923252
1.5821879
1.4994019
1.4365066
1.3883727
1.3512052
1.3221773
1.2992526
1.2809738
1.2662857
1.2544099
1.244761
1.2368919
1.2304554
1.2251793
22.244537
21.920596
20.559188
17.584957
13.861971
10.437221
7.8448255
6.0211721
4.7941921
3.9392766
3.2501218
2.6869878
2.2996294
2.0352048
1.8390478
1.6914121
1.5813933
1.4987066
1.435891
1.387819
1.3506986
1.3217058
1.2988078
1.2805494
1.265877
1.2540135
1.2443742
1.2365126
1.2300818
1.2248103
22.246215
21.924083
20.570574
17.605332
13.882276
10.451892
7.8529418
6.0247841
4.7950332
3.9387627
3.2490724
2.685799
2.298496
2.0341046
1.8380157
1.6905012
1.580601
1.4980133
1.435277
1.387267
1.3501933
1.3212356
1.2983642
1.2801261
1.2654694
1.2536181
1.2439884
1.2361341
1.2297092
1.2244423
22.247887
21.92754
20.581908
17.625706
13.902627
10.466626
7.8610924
6.0284158
4.7958847
3.9382554
3.2480284
2.6846142
2.2973653
2.0330077
1.8369871
1.6895927
1.5798109
1.4973216
1.4346646
1.3867165
1.3496893
1.3207668
1.2979218
1.279704
1.265063
1.2532237
1.2436035
1.2357566
1.2293377
1.2240751
22.249553
21.930969
20.593188
17.646081
13.923018
10.481423
7.8692798
6.0320676
4.7967466
3.9377546
3.24699
2.6834333
2.2962368
2.031913
1.8359606
1.6886866
1.5790227
1.4966318
1.4340538
1.3861674
1.3491866
1.320299
1.2974804
1.2792828
1.2646575
1.2528303
1.2432195
1.23538
1.2289669
1.2237087
22.251212
21.934368
20.604412
17.666453
13.943453
10.49628
7.8775018
6.0357402
4.7976189
3.9372606
3.2459571
2.6822564
2.2951111
2.0308209
1.8349359
1.687783
1.5782365
1.495944
1.4334448
1.3856196
1.3486853
1.3198325
1.2970402
1.2788628
1.2642531
1.252438
1.2428366
1.2350045
1.228597
1.2233433
22.252865
21.937739
20.61558
17.686823
13.963932
10.511199
7.88576
6.0394335
4.7985017
3.9367733
3.2449297
2.6810835
2.2939885
2.0297301
1.8339141
1.6868814
1.5774527
1.4952582
1.4328376
1.3850734
1.3481854
1.3193673
1.2966013
1.2784439
1.2638496
1.2520467
1.2424547
1.23463
1.2282281
1.2229788
22.254511
21.941081
20.626693
17.70719
13.984451
10.526177
7.8940533
6.0431467
4.7993951
3.9362928
3.2439081
2.6799148
2.2928686
2.0286429
1.8328953
1.6859822
1.5766709
1.494574
1.4322318
1.3845288
1.3476869
1.3189032
1.2961635
1.2780261
1.2634472
1.2516564
1.2420739
1.2342565
1.2278601
1.2226153
22.256151
21.944395
20.637755
17.727554
14.00502
10.541214
7.9023821
6.0468804
4.8002989
3.9358192
3.2428922
2.6787501
2.2917509
2.0275578
1.8318782
1.6850854
1.5758909
1.4938915
1.4316275
1.3839856
1.3471894
1.3184403
1.2957267
1.2776093
1.2630458
1.251267
1.2416939
1.2338837
1.2274932
1.2222528
22.257785
21.947682
20.648763
17.747914
14.02563
10.556309
7.9107466
6.0506353
4.8012133
3.9353525
3.2418821
2.6775894
2.290636
2.0264748
1.8308632
1.6841906
1.5751128
1.4932109
1.4310249
1.3834437
1.3466933
1.3179787
1.295291
1.2771936
1.2626455
1.2508785
1.2413147
1.2335119
1.2271272
1.2218911
22.259414
21.950942
20.659715
17.768267
14.04629
10.571459
7.919146
6.0544108
4.8021385
3.9348927
3.2408777
2.6764327
2.289524
2.0253935
1.8298513
1.6832979
1.574337
1.4925323
1.430424
1.382903
1.3461984
1.3175181
1.2948563
1.2767788
1.2622462
1.250491
1.2409365
1.2331409
1.2267619
1.2215302
22.261036
21.954174
20.67061
17.788617
14.066999
10.586665
7.9275817
6.0582066
4.8030744
3.93444
3.239879
2.6752802
2.2884146
2.0243152
1.8288416
1.6824075
1.5735631
1.4918551
1.4298246
1.3823639
1.3457049
1.3170587
1.2944228
1.276365
1.2618477
1.2501045
1.2405592
1.2327709
1.2263975
1.2211701
22.262652
21.957381
20.681452
17.808957
14.087753
10.601925
7.936052
6.0620233
4.8040211
3.9339942
3.238886
2.6741316
2.2873074
2.0232392
1.8278335
1.6815194
1.5727908
1.4911795
1.4292264
1.3818261
1.3452125
1.3166003
1.2939903
1.2759523
1.2614501
1.2497189
1.2401828
1.2324018
1.2260339
1.2208108
22.264263
21.960561
20.692244
17.829294
14.108558
10.61724
7.944559
6.0658614
4.8049786
3.9335556
3.237899
2.672987
2.2862028
2.0221649
1.8268277
1.6806331
1.5720203
1.4905056
1.4286297
1.3812897
1.3447213
1.3161431
1.2935588
1.2755405
1.2610535
1.2493342
1.2398074
1.2320336
1.2256711
1.2204524
22.265868
21.963717
20.702982
17.849621
14.129406
10.632611
7.9531005
6.06972
4.8059471
3.9331241
3.2369178
2.6718465
2.2851011
2.0210926
1.825825
1.6797489
1.5712521
1.4898338
1.4280347
1.3807545
1.3442312
1.315687
1.2931284
1.2751297
1.2606579
1.2489503
1.2394328
1.2316661
1.2253093
1.220095
22.267468
21.966846
20.713666
17.869941
14.150305
10.648037
7.9616789
6.0735992
4.8069265
3.9326999
3.2359425
2.67071
2.2840021
2.020023
1.824824
1.6788669
1.5704856
1.4891633
1.4274413
1.3802205
1.3437423
1.315232
1.2926989
1.2747199
1.2602633
1.2485673
1.239059
1.2312995
1.2249484
1.2197384
22.269063
21.969951
20.724294
17.890251
14.171249
10.663518
7.9702919
6.0775001
4.8079171
3.9322831
3.2349732
2.6695775
2.2829053
2.0189557
1.8238245
1.6779869
1.5697206
1.4884942
1.4268491
1.3796878
1.3432545
1.3147779
1.2922703
1.2743108
1.2598694
1.2481851
1.2386859
1.2309335
1.2245882
1.2193825
22.270653
21.973032
20.734869
17.91055
14.192238
10.679054
7.978942
6.0814221
4.8089188
3.9318736
3.2340098
2.668449
2.2818107
2.0178897
1.822828
1.6771087
1.5689575
1.4878267
1.4262581
1.3791565
1.342768
1.3143249
1.2918429
1.2739027
1.2594764
1.2478039
1.2383137
1.2305685
1.2242287
1.2190273
22.272238
21.976088
20.745394
17.930842
14.213276
10.694645
7.987627
6.0853648
4.8099319
3.9314715
3.2330523
2.6673245
2.2807191
2.0168262
1.8218336
1.6762326
1.5681963
1.4871611
1.4256686
1.3786264
1.3422825
1.3138729
1.2914163
1.2734957
1.2590842
1.2474236
1.2379424
1.2302044
1.22387
1.2186727
22.273818
21.979121
20.755869
17.951119
14.234356
10.710293
7.996349
6.0893288
4.8109562
3.9310769
3.2321008
2.6662039
2.27963
2.0157649
1.8208408
1.6753585
1.5674369
1.4864971
1.4250807
1.3780974
1.341798
1.313422
1.2909907
1.2730895
1.2586929
1.247044
1.237572
1.2298411
1.223512
1.2183191
22.275393
21.982131
20.766291
17.971388
14.255484
10.725996
8.0051063
6.0933146
4.8119918
3.9306899
3.2311553
2.6650873
2.2785431
2.0147058
1.8198497
1.6744863
1.5666789
1.4858341
1.4244941
1.3775695
1.3413146
1.312972
1.290566
1.2726841
1.2583025
1.2466651
1.2372023
1.2294784
1.2231547
1.2179662
22.276963
21.985117
20.776658
17.991643
14.276655
10.741754
8.0139005
6.0973214
4.8130386
3.9303105
3.2302157
2.6639746
2.2774584
2.0136479
1.8188619
1.6736158
1.5659226
1.4851727
1.4239086
1.3770429
1.3408323
1.312523
1.2901421
1.2722796
1.2579129
1.246287
1.2368334
1.2291164
1.2227984
1.2176141
22.278528
21.988081
20.786973
18.011886
14.297871
10.757568
8.0227307
6.1013494
4.8140968
3.9299386
3.2292823
2.6628659
2.2763763
2.0125925
1.8178754
1.6727473
1.5651682
1.484513
1.4233243
1.3765175
1.3403512
1.3120749
1.2897191
1.2718758
1.2575242
1.2459097
1.2364651
1.2287551
1.2224429
1.2172627
22.280089
21.991022
20.797238
18.032116
14.319133
10.773438
8.0315976
6.1053994
4.8151664
3.9295745
3.2283549
2.6617609
2.2752968
2.0115393
1.8168904
1.6718808
1.5644155
1.4838549
1.4227414
1.3759933
1.339871
1.3116278
1.2892971
1.2714729
1.2571362
1.2455333
1.2360975
1.2283946
1.2220879
1.216912
22.281646
21.993942
20.807456
18.05233
14.340436
10.789365
8.040501
6.109471
4.8162475
3.929218
3.2274335
2.6606598
2.2742194
2.0104879
1.8159077
1.6710159
1.5636641
1.4831979
1.42216
1.37547
1.3393916
1.3111815
1.2888759
1.2710709
1.2567488
1.2451576
1.2357306
1.2280349
1.2217335
1.2165617
22.283198
21.996841
20.817624
18.072534
14.361786
10.805347
8.0494412
6.1135638
4.8173401
3.9288693
3.2265181
2.6595625
2.2731439
2.0094377
1.8149278
1.6701528
1.5629142
1.4825422
1.4215798
1.3749477
1.3389133
1.3107362
1.2884556
1.2706696
1.2563622
1.2447826
1.2353647
1.2276759
1.2213798
1.2162122
22.284747
21.999718
20.827739
18.092718
14.383177
10.821385
8.0584184
6.1176787
4.8184443
3.9285283
3.2256087
2.658469
2.2720709
2.0083899
1.8139488
1.6692915
1.5621663
1.481888
1.4210006
1.3744267
1.338436
1.3102918
1.288036
1.2702692
1.2559764
1.2444083
1.2349994
1.2273176
1.2210267
1.2158634
22.286291
22.002576
20.837804
18.112892
14.404611
10.837481
8.0674325
6.1218159
4.8195601
3.9281951
3.2247054
2.6573793
2.2710003
2.0073443
1.8129714
1.6684322
1.56142
1.4812356
1.4204225
1.3739068
1.3379598
1.3098482
1.2876172
1.2698695
1.2555915
1.2440346
1.2346348
1.2269599
1.2206745
1.2155154
22.287832
22.005414
20.847819
18.133046
14.42609
10.853632
8.076484
6.1259745
4.8206877
3.9278697
3.2238081
2.6562932
2.2699318
2.0063002
1.8119968
1.6675744
1.5606748
1.4805843
1.4198458
1.373388
1.3374844
1.3094055
1.2871992
1.2694704
1.2552073
1.2436616
1.2342707
1.2266027
1.2203229
1.215168
22.289369
22.008232
20.857787
18.153186
14.447608
10.869841
8.0855728
6.1301553
4.8218271
3.9275522
3.2229169
2.6552107
2.2688651
2.0052573
1.8110241
1.6667183
1.5599312
1.479934
1.4192705
1.37287
1.3370099
1.3089636
1.2867821
1.2690721
1.2548237
1.2432894
1.2339072
1.2262462
1.219972
1.2148212
22.290902
22.011032
20.867711
18.173309
14.469171
10.886106
8.0946994
6.1343589
4.8229785
3.9272425
3.2220318
2.6541318
2.2678004
2.0042167
1.8100523
1.665864
1.5591894
1.4792852
1.4186962
1.3723531
1.3365363
1.3085225
1.2863658
1.2686747
1.2544407
1.2429179
1.2335444
1.2258903
1.2196216
1.2144749
22.292432
22.013814
20.877585
18.193413
14.490774
10.902428
8.1038636
6.1385844
4.8241416
3.9269407
3.2211526
2.6530565
2.2667381
2.0031781
1.8090823
1.6650116
1.5584492
1.478638
1.4181229
1.3718372
1.3360636
1.3080824
1.2859502
1.2682779
1.2540584
1.2425471
1.2331824
1.2255353
1.2192717
1.2141291
22.293959
22.016577
20.88741
18.213504
14.512419
10.918807
8.1130662
6.1428322
4.8253165
3.9266468
3.2202795
2.6519847
2.2656778
2.0021409
1.8081155
1.6641606
1.5577101
1.4779921
1.4175506
1.3713224
1.3355918
1.307643
1.2855352
1.2678819
1.2536767
1.2421768
1.2328211
1.2251808
1.2189223
1.2137839
22.295482
22.019324
20.897186
18.233571
14.534107
10.935244
8.1223066
6.1471032
4.8265034
3.9263608
3.2194124
2.6509164
2.2646191
2.001105
1.8071499
1.6633114
1.5569724
1.4773472
1.4169797
1.3708087
1.335121
1.3072044
1.285121
1.2674864
1.2532959
1.2418071
1.2324603
1.2248269
1.2185736
1.2134394
22.297003
22.022054
20.906917
18.253625
14.555833
10.951738
8.131586
6.1513968
4.8277023
3.9260826
3.2185512
2.6498515
2.2635621
2.0000711
1.8061851
1.6624638
1.5562366
1.4767035
1.4164101
1.3702958
1.334651
1.3067666
1.2847076
1.2670916
1.2529157
1.2414379
1.2321001
1.2244735
1.2182256
1.2130956
22.298521
22.024768
20.916604
18.273658
14.577602
10.968291
8.1409037
6.1557131
4.8289133
3.9258125
3.2176961
2.6487899
2.2625074
1.9990393
1.8052225
1.6616182
1.5555023
1.4760613
1.4158415
1.3697838
1.3341818
1.3063295
1.284295
1.2666975
1.2525362
1.2410695
1.2317404
1.2241205
1.2178784
1.2127524
22.300036
22.027466
20.926248
18.293671
14.59941
10.984901
8.150261
6.1600528
4.8301367
3.9255503
3.2168468
2.6477317
2.2614545
1.9980086
1.804263
1.6607738
1.5547692
1.4754207
1.4152736
1.3692727
1.3337135
1.3058932
1.283883
1.2663042
1.2521571
1.2407018
1.2313811
1.2237681
1.2175314
1.2124095
22.301549
22.030149
20.935845
18.313668
14.621258
11.00157
8.1596572
6.1644161
4.8313724
3.9252961
3.2160035
2.6466768
2.2604032
1.9969794
1.8033043
1.6599313
1.5540373
1.474781
1.414707
1.3687628
1.333246
1.3054578
1.2834718
1.2659115
1.2517786
1.2403347
1.2310226
1.2234165
1.217185
1.2120672
22.303059
22.032817
20.945396
18.333639
14.643147
11.018297
8.1690935
6.1688024
4.8326208
3.9250498
3.2151659
2.645625
2.2593535
1.9959523
1.8023465
1.6590904
1.5533073
1.4741424
1.4141417
1.3682539
1.3327794
1.305023
1.2830611
1.2655195
1.2514008
1.2399682
1.2306648
1.2230656
1.2168391
1.2117253
22.304567
22.03547
20.954901
18.353597
14.665074
11.035082
8.1785693
6.1732125
4.8338819
3.9248115
3.2143341
2.6445764
2.2583057
1.994927
1.8013915
1.6582515
1.5525789
1.4735051
1.4135777
1.3677459
1.3323138
1.3045891
1.2826512
1.2651281
1.2510238
1.2396021
1.2303077
1.2227152
1.2164937
1.211384
22.306073
22.038109
20.964363
18.373529
14.687043
11.051928
8.1880858
6.1776471
4.8351559
3.9245812
3.2135077
2.643531
2.2572599
1.9939029
1.8004391
1.6574138
1.5518516
1.4728694
1.4130144
1.3672385
1.3318487
1.3041557
1.2822419
1.2647371
1.2506472
1.2392365
1.2299509
1.2223651
1.2161488
1.2110433
22.307578
22.040735
20.973786
18.393443
14.709048
11.068832
8.1976426
6.1821052
4.8364428
3.9243589
3.2126866
2.6424886
2.2562157
1.9928805
1.7994874
1.6565779
1.5511255
1.472235
1.412452
1.3667322
1.3313845
1.3037231
1.2818334
1.2643469
1.2502714
1.2388715
1.2295945
1.2220155
1.2158047
1.2107033
22.30908
22.043348
20.983168
18.413337
14.731092
11.085795
8.2072409
6.1865877
4.8377428
3.9241446
3.2118708
2.6414493
2.2551731
1.9918601
1.7985366
1.6557437
1.5504012
1.4716014
1.4118907
1.3662269
1.3309211
1.3032913
1.2814256
1.2639574
1.249896
1.2385072
1.2292387
1.2216663
1.2154612
1.2103638
22.310581
22.045947
20.992506
18.433204
14.753175
11.102818
8.2168802
6.1910955
4.8390561
3.9239384
3.2110602
2.6404129
2.2541325
1.9908416
1.7975893
1.6549113
1.5496785
1.470969
1.4113309
1.3657227
1.3304586
1.3028604
1.2810184
1.2635686
1.2495211
1.2381436
1.2288834
1.2213178
1.215118
1.2100246
22.312081
22.048534
21.001799
18.453057
14.775295
11.119901
8.2265616
6.1956274
4.8403829
3.9237404
3.2102545
2.6393795
2.253094
1.9898242
1.7966439
1.6540802
1.548957
1.4703379
1.4107721
1.3652191
1.3299969
1.3024299
1.2806117
1.2631803
1.2491467
1.2377804
1.2285288
1.2209699
1.2147752
1.2096857
22.313579
22.051109
21.011051
18.472881
14.797454
11.137044
8.236285
6.2001845
4.8417233
3.9235505
3.2094538
2.6383489
2.2520572
1.9888087
1.7956991
1.6532509
1.5482366
1.4697085
1.410214
1.3647164
1.3295359
1.3020002
1.2802056
1.2627925
1.2487731
1.2374177
1.2281748
1.2206227
1.2144328
1.2093473
22.315077
22.053671
21.020262
18.492687
14.819649
11.154248
8.2460512
6.2047674
4.8430776
3.9233687
3.208658
2.6373213
2.2510221
1.9877951
1.7947555
1.6524232
1.5475178
1.46908
1.4096568
1.3642145
1.3290756
1.3015712
1.2798003
1.2624052
1.2484001
1.2370554
1.2278213
1.2202758
1.2140908
1.2090095
22.316573
22.056223
21.029436
18.512469
14.841881
11.171512
8.2558602
6.2093752
4.8444458
3.9231951
3.2078669
2.6362965
2.2499888
1.9867833
1.7938155
1.6515973
1.5468007
1.4684524
1.4091008
1.3637137
1.3286162
1.3011428
1.2793957
1.2620186
1.2480277
1.2366936
1.2274682
1.2199294
1.2137496
1.2086724
22.318069
22.058763
21.038573
18.532225
14.86415
11.188837
8.2657129
6.2140089
4.8458281
3.9230298
3.2070807
2.6352745
2.2489575
1.9857727
1.7928769
1.6507726
1.5460849
1.4678258
1.408546
1.3632138
1.3281574
1.3007152
1.2789916
1.2616325
1.2476556
1.2363324
1.2271154
1.2195832
1.213409
1.2083358
22.319563
22.061292
21.047669
18.551965
14.886454
11.206223
8.2756095
6.2186693
4.8472244
3.9228726
3.2062992
2.6342553
2.2479281
1.9847638
1.7919391
1.6499496
1.54537
1.467201
1.4079922
1.3627147
1.3276994
1.3002882
1.2785882
1.2612471
1.247284
1.2359719
1.2267631
1.2192375
1.2130688
1.2079995
22.321057
22.063812
21.056723
18.571674
14.908795
11.22367
8.2855504
6.2233554
4.8486347
3.9227237
3.2055224
2.6332389
2.2469004
1.9837568
1.7910025
1.6491283
1.5446565
1.4665774
1.4074392
1.3622162
1.3272423
1.2998619
1.2781852
1.2608623
1.2469128
1.2356119
1.2264113
1.2188923
1.2127289
1.2076635
22.322551
22.066321
21.065738
18.591364
14.93117
11.241179
8.2955363
6.2280681
4.8500593
3.9225831
3.2047505
2.6322253
2.2458742
1.9827516
1.7900695
1.6483086
1.5439448
1.4659545
1.4068869
1.3617186
1.3267858
1.2994363
1.2777828
1.2604781
1.2465423
1.2352524
1.2260603
1.218548
1.2123894
1.207328
22.324044
22.068821
21.074715
18.611028
14.95358
11.25875
8.3055673
6.2328083
4.8514982
3.9224508
3.2039833
2.6312144
2.2448499
1.9817474
1.7891375
1.6474902
1.5432344
1.4653324
1.4063357
1.3612218
1.3263299
1.2990111
1.277381
1.2600941
1.2461724
1.2348931
1.2257097
1.218204
1.2120501
1.2069927
22.325537
22.071311
21.083656
18.630665
14.976024
11.276381
8.3156444
6.237575
4.8529516
3.9223268
3.2032208
2.6302062
2.2438276
1.9807449
1.7882062
1.6466733
1.5425248
1.4647117
1.4057859
1.360726
1.3258748
1.2985865
1.27698
1.2597106
1.2458031
1.2345342
1.2253595
1.2178603
1.2117114
1.206658
22.32703
22.073793
21.092565
18.650283
14.998503
11.294076
8.3257674
6.2423692
4.8544196
3.9222112
3.202463
2.6292006
2.2428068
1.9797443
1.7872764
1.645858
1.5418164
1.4640927
1.4052369
1.3602311
1.3254203
1.2981628
1.2765794
1.2593277
1.2454342
1.2341757
1.2250096
1.217517
1.2113733
1.2063239
22.328523
22.076265
21.101435
18.66987
15.021015
11.311833
8.3359376
6.2471917
4.8559024
3.922104
3.20171
2.6281977
2.2417875
1.9787452
1.7863501
1.6450443
1.5411098
1.4634745
1.4046885
1.3597368
1.3249667
1.2977397
1.2761795
1.2589456
1.2450656
1.233818
1.22466
1.2171739
1.2110358
1.2059904
22.330017
22.07873
21.110267
18.689437
15.043559
11.329652
8.3461545
6.2520416
4.8574001
3.9220051
3.2009616
2.6271975
2.2407699
1.9777471
1.7854244
1.6442318
1.5404045
1.4628568
1.4041408
1.3592429
1.3245136
1.2973169
1.2757798
1.2585639
1.2446973
1.2334608
1.2243108
1.2168312
1.2106986
1.205657
22.331511
22.081187
21.119061
18.708975
15.066137
11.347534
8.3564198
6.2569198
4.8589125
3.9219146
3.2002178
2.6261999
2.2397541
1.9767506
1.7844994
1.6434206
1.5397
1.4622401
1.4035942
1.3587501
1.3240611
1.2968949
1.2753806
1.2581827
1.2443295
1.233104
1.2239621
1.2164891
1.2103616
1.205324
22.333005
22.083636
21.12782
18.728485
15.088745
11.365479
8.3667326
6.2618271
4.8604397
3.9218325
3.1994788
2.6252048
2.2387398
1.9757558
1.783576
1.642611
1.5389965
1.4616249
1.4030488
1.358258
1.3236092
1.2964733
1.274982
1.2578017
1.2439624
1.2327475
1.2236141
1.2161477
1.2100248
1.2049911
22.3345
22.086077
21.136544
18.747976
15.111386
11.383487
8.3770946
6.2667627
4.8619818
3.9217589
3.1987445
2.6242123
2.237727
1.9747625
1.7826557
1.6418029
1.5382944
1.4610111
1.4025042
1.3577669
1.323158
1.2960522
1.2745841
1.2574211
1.2435958
1.2323913
1.2232666
1.2158066
1.2096884
1.2046585
22.335997
22.088513
21.145237
18.767432
15.134057
11.401559
8.3875054
6.2717276
4.8635391
3.9216937
3.1980148
2.6232223
2.2367155
1.9737699
1.7817359
1.6409959
1.5375939
1.4603976
1.40196
1.3572761
1.3227073
1.2956318
1.2741866
1.2570409
1.2432296
1.2320352
1.2229192
1.2154657
1.2093522
1.2043264
22.337495
22.090943
21.153894
18.786868
15.156759
11.419693
8.3979662
6.2767223
4.8651116
3.9216369
3.1972899
2.6222349
2.2357057
1.9727789
1.7808166
1.6401901
1.5368942
1.4597848
1.4014165
1.3567859
1.3222574
1.2952119
1.2737896
1.2566615
1.2428636
1.2316797
1.222572
1.215125
1.2090168
1.2039951
22.338995
22.093368
21.162511
18.806274
15.17949
11.437891
8.4084769
6.2817461
4.8666995
3.9215886
3.1965696
2.6212499
2.2346974
1.9717894
1.7798992
1.6393857
1.5361952
1.459173
1.4008739
1.3562964
1.3218079
1.2947925
1.2733929
1.2562824
1.2424979
1.2313248
1.222225
1.2147844
1.2086819
1.203664
22.340497
22.09579
21.171087
18.825649
15.202251
11.456154
8.4190386
6.2868003
4.8683029
3.9215488
3.195854
2.6202674
2.2336905
1.9708012
1.7789844
1.6385827
1.5354972
1.4585629
1.4003326
1.3558077
1.3213589
1.2943735
1.2729965
1.2559039
1.2421324
1.2309704
1.2218783
1.2144443
1.2083472
1.2033331
22.342001
22.098207
21.179625
18.845005
15.22504
11.47448
8.4296512
6.2918849
4.8699216
3.9215174
3.195143
2.6192874
2.2326848
1.9698137
1.7780699
1.6377807
1.534801
1.4579534
1.3997918
1.3553197
1.3209105
1.2939548
1.2726005
1.2555254
1.2417674
1.2306162
1.2215322
1.2141046
1.2080125
1.2030022
22.343507
22.100622
21.188125
18.864325
15.247858
11.492869
8.4403155