/*--------------------------------*- C++ -*----------------------------------*\
| =========                 |                                                 |
| \\      /  F ield         | OpenFOAM: The Open Source CFD Toolbox           |
|  \\    /   O peration     | Version:  v2012                                 |
|   \\  /    A nd           | Website:  www.openfoam.com                      |
|    \\/     M anipulation  |                                                 |
\*---------------------------------------------------------------------------*/
FoamFile
{
    version     2.0;
    format      ascii;
    class       volScalarField;
    location    "750";
    object      T;
}
// * * * * * * * * * * * * * * * * * * * * * * * * * * * * * * * * * * * * * //

dimensions      [0 0 0 1 0 0 0];


internalField   nonuniform List<scalar> 
24000
(
42.776058
43.026287
44.188447
47.484244
54.234949
65.820512
82.354518
103.25014
126.43649
151.7285
182.77573
220.08269
256.34575
288.93476
319.42663
347.61742
372.41161
393.64631
411.54189
426.40195
438.62257
448.64755
456.87878
463.64955
469.22867
473.83218
477.63438
480.77667
483.3743
485.52161
42.775009
43.023618
44.178211
47.458161
54.18843
65.755194
82.280365
103.18529
126.40282
151.73245
182.80986
220.14318
256.43367
289.06092
319.58916
347.80211
372.60867
393.84834
411.74331
426.5998
438.81599
448.83672
457.06427
463.83198
469.40864
474.01021
477.81092
480.95208
483.54887
485.69559
42.773947
43.020914
44.167801
47.431982
54.141815
65.69075
82.21077
103.12969
126.3831
151.75283
182.86344
220.23147
256.55458
289.22007
319.78243
348.01418
372.82844
394.06928
411.96093
426.81152
439.02146
449.03662
457.25959
464.02369
469.59756
474.197
477.9961
481.13606
483.73199
485.87808
42.772885
43.018198
44.157428
47.405963
54.095289
65.627118
82.143231
103.0771
126.36572
151.77516
182.9206
220.32277
256.67497
289.37384
319.96396
348.20646
373.02114
394.25762
412.14277
426.98659
439.19074
449.20132
457.4207
464.182
469.75367
474.35139
478.14917
481.28812
483.8833
486.02888
42.771827
43.015488
44.1471
47.380055
54.048832
65.563955
82.076839
103.02632
126.35051
151.80022
182.98206
220.41977
256.80148
289.53369
320.1518
348.40601
373.22254
394.45618
412.33601
427.17364
439.37212
449.37797
457.59355
464.35182
469.92112
474.51699
478.31334
481.45122
484.04561
486.19064
42.770772
43.012792
44.13684
47.354242
54.002422
65.501069
82.011054
102.97654
126.33647
151.82677
183.04603
220.52021
256.93159
289.69699
320.34291
348.6086
373.42662
394.65702
412.53112
427.36228
439.55493
449.55597
457.76772
464.52296
470.08987
474.68389
478.47882
481.61562
484.20923
486.3537
42.769723
43.010115
44.126642
47.328529
53.956054
65.438312
81.945574
102.9273
126.32315
151.85431
183.11172
220.6231
257.06438
289.86296
320.53667
348.8138
373.6332
394.86022
412.7285
427.5531
439.73984
449.73602
457.94388
464.69607
470.26059
474.85275
478.64624
481.78196
484.37477
486.51868
42.768678
43.007459
44.116506
47.302885
53.909744
65.375635
81.880237
102.87834
126.31023
151.88244
183.1785
220.72759
257.19893
290.03066
320.7321
349.02057
373.84124
395.06476
412.9271
427.74505
439.92584
449.91713
458.12111
464.87023
470.43236
475.02265
478.81471
481.94935
484.54136
486.6847
42.767638
43.004826
44.10643
47.277339
53.86346
65.312965
81.814936
102.82951
126.29752
151.91092
183.24596
220.8331
257.33462
290.19948
320.92859
349.22831
374.05015
395.27007
413.1264
427.93766
440.11247
450.09886
458.29895
465.04501
470.60473
475.19317
478.98379
482.11735
484.70856
486.85134
42.766604
43.002215
44.096428
47.251852
53.817235
65.250292
81.749599
102.78069
126.28489
151.93957
183.31384
220.93925
257.47105
290.369
321.12569
349.43659
374.25952
395.47578
413.32606
428.13062
440.29944
450.28092
458.47711
465.22012
470.77745
475.36402
479.15321
482.28569
484.8761
487.01831
42.765575
42.999627
44.086487
47.226455
53.771038
65.18758
81.684191
102.7318
126.27224
151.96829
183.38195
221.04581
257.60794
290.53895
321.32313
349.64513
374.46908
395.68163
413.52583
428.32366
440.48649
450.46308
458.65538
465.39533
470.95027
475.53498
479.32275
482.45414
485.04376
487.1854
42.764552
42.997062
44.076608
47.201117
53.724893
65.124818
81.61867
102.6828
126.25952
151.99701
183.45013
221.15257
257.74508
290.70912
321.52073
349.85374
374.67867
395.88746
413.72556
428.51666
440.6735
450.6452
458.83362
465.57052
471.12308
475.70594
479.49228
482.6226
485.21142
487.3525
42.763536
42.99452
44.066784
47.175862
53.678794
65.062001
81.553026
102.63364
126.24669
152.02567
183.51833
221.25942
257.88236
290.8794
321.71834
350.0623
374.88815
396.09315
413.92513
428.7095
440.86037
450.82718
459.01173
465.74559
471.29576
475.87678
479.6617
482.79094
485.37897
487.51948
42.762525
42.992005
44.057032
47.150668
53.632728
64.99911
81.487235
102.58432
126.23372
152.05422
183.58646
221.36627
258.0197
291.0497
321.91588
350.27072
375.09744
396.29863
414.12447
428.90212
441.04702
451.00896
459.18964
465.92046
471.46827
476.04744
479.83095
482.95912
485.54635
487.6863
42.761518
42.989513
44.047339
47.125553
53.586729
64.936153
81.42129
102.5348
126.22058
152.08264
183.65448
221.47308
258.15702
291.21995
322.1133
350.47894
375.30648
396.50383
414.32353
429.09446
441.2334
451.19047
459.3673
466.0951
471.64054
476.21787
479.99996
483.12706
485.7135
487.85289
42.760517
42.987044
44.037709
47.100502
53.540758
64.873109
81.355185
102.48508
126.20725
152.1109
183.72237
221.57978
258.29426
291.39012
322.31056
350.68693
375.51525
396.70872
414.52227
429.28649
441.41948
451.3717
459.54469
466.26946
471.81254
476.38804
480.16872
483.29475
485.88041
488.01924
42.759521
42.984602
44.028133
47.075525
53.494853
64.809994
81.288908
102.43514
126.19372
152.13899
183.79008
221.68635
258.43142
291.56016
322.5076
350.89464
375.72371
396.91328
414.72067
429.47818
441.60523
451.55261
459.72176
466.44352
471.98425
476.55792
480.33719
483.46215
486.04702
488.18529
42.758529
42.982183
44.018619
47.050622
53.448991
64.746784
81.222469
102.38498
126.17999
152.16689
183.8576
221.79275
258.56847
291.73008
322.70443
351.10207
375.93183
397.11749
414.91871
429.66952
441.79064
451.73319
459.89851
466.61727
472.15565
476.72749
480.50536
483.62926
486.21335
488.35106
42.757542
42.979785
44.009169
47.02578
53.403176
64.683501
81.15585
102.3346
126.16604
152.1946
183.92491
221.89897
258.70536
291.89982
322.90103
351.30919
376.13961
397.32132
415.11637
429.86049
441.9757
451.91343
460.07493
466.79069
472.32672
476.89674
480.67321
483.79606
486.37935
488.51651
42.75656
42.977409
43.999783
47.001024
53.35743
64.620126
81.089061
102.28398
126.15187
152.2221
183.992
222.005
258.8421
292.06938
323.09736
351.51599
376.34704
397.52478
415.31365
430.0511
442.1604
452.09332
460.25101
466.96377
472.49747
477.06567
480.84075
483.96253
486.54505
488.68165
42.755583
42.975055
43.99045
46.976327
53.31172
64.556664
81.022095
102.23313
126.13747
152.24939
184.05886
222.11082
258.97867
292.23877
323.29344
351.72247
376.5541
397.72785
415.51054
430.2413
442.34471
452.27283
460.42672
467.1365
472.66786
477.23426
481.00794
484.12866
486.7104
488.84645
42.75461
42.972722
43.98117
46.951712
53.266088
64.493119
80.954953
102.18204
126.12284
152.27646
184.12548
222.21642
259.11507
292.40797
323.48926
351.92861
376.76079
397.93054
415.70704
430.43113
442.52866
452.45199
460.60208
467.30888
472.83792
477.40251
481.1748
484.29447
486.87543
489.01092
42.753642
42.970411
43.971963
46.927162
53.220501
64.42948
80.88764
102.13072
126.10797
152.3033
184.19185
222.32178
259.25128
292.57696
323.6848
352.13442
376.9671
398.13282
415.90313
430.62056
442.71222
452.63077
460.77708
467.48091
473.00762
477.57041
481.34131
484.45993
487.04012
489.17506
42.752679
42.968121
43.962813
46.90269
53.174979
64.36576
80.820148
102.07915
126.09287
152.32991
184.25795
222.42691
259.38729
292.74575
323.88006
352.3399
377.17306
398.33472
416.09883
430.80961
442.89541
452.80919
460.95172
467.65259
473.17698
477.73796
481.50748
484.62506
487.20447
489.33886
42.75172
42.965851
43.953722
46.878289
53.129524
64.301943
80.752491
102.02734
126.07751
152.35627
184.32379
222.53178
259.52311
292.91434
324.07505
352.54503
377.37862
398.53622
416.29412
430.99825
443.0782
452.98722
461.12599
467.82389
473.34597
477.90516
481.6733
484.78983
487.36847
489.50231
42.750765
42.963603
43.944683
46.853962
53.084117
64.238049
80.684657
101.97529
126.06191
152.3824
184.38935
222.63641
259.65874
293.08272
324.26977
352.74983
377.58382
398.73733
416.48903
431.18652
443.26062
453.1649
461.2999
467.99485
473.51463
478.07203
481.83878
484.95427
487.53214
489.66543
42.749814
42.961374
43.935704
46.829712
53.038801
64.174061
80.61666
101.92301
126.04606
152.40828
184.45464
222.74078
259.79415
293.25089
324.4642
352.95431
377.78866
398.93805
416.68353
431.37439
443.44267
453.3422
461.47345
468.16545
473.68292
478.23853
482.00392
485.11836
487.69546
489.82821
42.748868
42.959167
43.926788
46.805533
52.993532
64.109988
80.548492
101.87047
126.02996
152.43391
184.51966
222.84489
259.92936
293.41886
324.65837
353.15845
377.99313
399.13839
416.87766
431.56189
443.62435
453.51914
461.64665
468.33571
473.85088
478.4047
482.16871
485.28212
487.85845
489.99066
42.747926
42.95698
43.917935
46.781439
52.948345
64.045831
80.480162
101.81769
126.01361
152.4593
184.58438
222.94874
260.06438
293.58663
324.85227
353.36225
378.19723
399.33834
417.07139
431.749
443.80564
453.69572
461.81948
468.50561
474.01849
478.57053
482.33317
485.44554
488.02111
490.15277
42.746988
42.954815
43.909134
46.757415
52.903228
63.981582
80.411669
101.76468
125.997
152.48443
184.64881
223.05233
260.19919
293.75418
325.04591
353.56575
378.40099
399.53793
417.26475
431.93575
443.9866
453.87196
461.99199
468.67519
474.18578
478.73604
482.49731
485.60865
488.18345
490.31457
42.746054
42.95267
43.900384
46.733474
52.858172
63.917252
80.343014
101.71142
125.98014
152.5093
184.71295
223.15564
260.33377
293.92153
325.23926
353.76891
378.60439
399.73714
417.45773
432.12212
444.16718
454.04784
462.16414
468.84442
474.35272
478.90121
482.66112
485.77142
488.34546
490.47604
42.745124
42.950545
43.891698
46.709606
52.813215
63.852828
80.274207
101.65792
125.96302
152.53391
184.77679
223.25868
260.46815
294.08867
325.43236
353.97176
378.80743
399.93598
417.65033
432.30813
444.3474
454.22337
462.33595
469.01331
474.51934
479.06605
482.8246
485.93387
488.50715
490.63719
42.744198
42.948443
43.883072
46.685817
52.768313
63.788327
80.205238
101.60418
125.94564
152.55826
184.84034
223.36145
260.60232
294.25561
325.6252
354.17428
379.01012
400.13444
417.84255
432.49375
444.52726
454.39854
462.50741
469.18186
474.68561
479.23055
482.98774
486.09599
488.66851
490.79801
42.743276
42.94636
43.874506
46.662108
52.723508
63.723739
80.136127
101.55021
125.928
152.58235
184.90358
223.46394
260.73629
294.42234
325.81776
354.3765
379.21248
400.33256
418.03443
432.67904
444.70679
454.57338
462.67856
469.35009
474.85157
479.39475
483.15058
486.2578
488.82956
490.95853
42.742357
42.944296
43.865989
46.638473
52.678777
63.659064
80.066858
101.49599
125.9101
152.60616
184.96651
223.56616
260.87003
294.58887
326.01007
354.5784
379.41449
400.53031
418.22593
432.86396
444.88595
454.74787
462.84935
469.51799
475.01719
479.55861
483.31309
486.41928
488.99029
491.11872
42.741442
42.94225
43.857523
46.614923
52.634124
63.594306
79.997451
101.44154
125.89193
152.6297
185.02913
223.66808
261.00355
294.7552
326.20213
354.78
379.61616
400.72771
418.41707
433.04853
445.06478
454.92204
463.01983
469.68557
475.18251
479.72217
483.47529
486.58047
489.15072
491.27862
42.740531
42.940223
43.849121
46.591445
52.589574
63.529458
79.927895
101.38684
125.8735
152.65296
185.09144
223.76973
261.13688
294.92132
326.39393
354.98129
379.81751
400.92476
418.60786
433.23275
445.24327
455.09588
463.18998
469.85282
475.34751
479.88541
483.63719
486.74134
489.31084
491.4382
42.739624
42.938213
43.840777
46.568056
52.545089
63.464532
79.858204
101.33192
125.8548
152.67594
185.15343
223.8711
261.26999
295.08725
326.58549
355.1823
380.01854
401.12149
418.79833
433.41666
445.42145
455.26941
463.35984
470.01979
475.51222
480.04837
483.7988
486.90194
489.47069
491.59752
42.738721
42.93622
43.832489
46.544745
52.500719
63.399518
79.788373
101.27675
125.83584
152.69865
185.21512
223.97219
261.40289
295.25299
326.7768
355.38301
380.21924
401.31787
418.98844
433.60022
445.59929
455.44261
463.52937
470.18644
475.67661
480.21102
483.9601
487.06222
489.63022
491.75652
42.737821
42.934245
43.82425
46.521514
52.456428
63.334422
79.71841
101.22135
125.8166
152.72107
185.27649
224.073
261.53557
295.41853
326.96786
355.58342
380.41962
401.5139
419.17821
433.78344
445.77681
455.6155
463.69859
470.35279
475.84071
480.37337
484.12111
487.22222
489.78947
491.91524
42.736925
42.932287
43.816058
46.498365
52.41223
63.269241
79.648318
101.16572
125.79708
152.7432
185.33754
224.17351
261.66805
295.58387
327.15867
355.78354
380.61968
401.7096
419.36764
433.96633
445.95399
455.78806
463.8675
470.51882
476.0045
480.53542
484.28182
487.38191
489.94842
492.07366
42.736032
42.930345
43.807929
46.475292
52.368142
63.203973
79.578096
101.10986
125.7773
152.76505
185.39827
224.27375
261.80033
295.74903
327.34926
355.98339
380.81945
401.905
419.55677
434.14892
446.1309
455.96035
464.03613
470.68459
476.16803
480.6972
484.44226
487.54134
490.10711
492.23182
42.735142
42.928419
43.799857
46.452306
52.32413
63.138626
79.507755
101.05376
125.75725
152.78661
185.45868
224.37371
261.93239
295.914
327.53962
356.18296
381.01891
402.10008
419.74557
434.33118
446.30748
456.13233
464.20446
470.85005
476.33125
480.85869
484.60242
487.70049
490.26551
492.38969
42.734255
42.926509
43.791838
46.429391
52.280249
63.073195
79.437286
100.99743
125.73692
152.80788
185.51877
224.4734
262.06425
296.07879
327.72973
356.38226
381.21807
402.29484
419.93405
434.51314
446.48377
456.30401
464.37251
471.01524
476.49421
481.01991
484.76231
487.85937
490.42365
492.54731
42.73337
42.924615
43.783866
46.406569
52.236413
63.007752
79.366708
100.94088
125.71632
152.82885
185.57854
224.5728
262.19591
296.24339
327.91962
356.58128
381.41694
402.48929
420.12222
434.69479
446.65975
456.47541
464.54026
471.18015
476.65688
481.18085
484.92192
488.01797
490.58151
492.70465
42.732489
42.922736
43.77594
46.383817
52.192647
62.942296
79.296005
100.88409
125.69544
152.84954
185.638
224.67193
262.32738
296.40782
328.1093
356.78006
381.61553
402.68346
420.3101
434.87617
446.83547
456.64654
464.70777
471.3448
476.81931
481.34155
485.08129
488.17634
490.73914
492.86175
42.73161
42.920872
43.768071
46.361153
52.148952
62.876826
79.225196
100.82708
125.6743
152.86992
185.69713
224.77079
262.45866
296.57208
328.29877
356.97857
381.81384
402.87733
420.49767
435.05723
447.01088
456.81738
464.87498
471.50917
476.98146
481.50197
485.24038
488.33443
490.89649
493.01858
42.730734
42.919025
43.760259
46.338573
52.105304
62.81135
79.154264
100.76984
125.65287
152.89001
185.75594
224.86937
262.58973
296.73616
328.488
357.17682
382.01186
403.0709
420.68495
435.23801
447.18602
456.98795
465.04194
471.67328
477.14335
481.66214
485.39922
488.49227
491.05359
493.17516
42.729861
42.917193
43.752499
46.316069
52.061753
62.745863
79.083227
100.71237
125.63117
152.9098
185.81444
224.96769
262.72062
296.90007
328.67702
357.37483
382.20961
403.26417
420.87193
435.4185
447.36088
457.15824
465.20861
471.83712
477.30497
481.82204
485.5578
488.64985
491.21044
493.33149
42.72899
42.915374
43.744783
46.293654
52.018249
62.68037
79.01207
100.65468
125.6092
152.92929
185.87261
225.06574
262.85133
297.06383
328.86586
357.57259
382.40711
403.45719
421.05866
435.59874
447.53549
457.32829
465.37507
472.00074
477.46638
481.98173
485.71617
488.80722
491.36707
493.48761
42.728123
42.913569
43.737111
46.27131
51.974824
62.614867
78.940806
100.59676
125.58694
152.94847
185.93046
225.16352
262.98185
297.22742
329.05448
357.77012
382.60434
403.64993
421.24509
435.77869
447.70983
457.49808
465.54125
472.1641
477.62753
482.14116
485.87428
488.96434
491.52346
493.64347
42.727259
42.91178
43.729489
46.249061
51.93147
62.549354
78.869426
100.53862
125.5644
152.96734
185.98799
225.26105
263.11218
297.39085
329.24289
357.96739
382.8013
403.84239
421.43125
435.95837
447.8839
457.66762
465.70719
472.32722
477.78844
482.30036
486.03217
489.12123
491.67961
493.79911
42.726397
42.910005
43.721923
46.226881
51.888173
62.483843
78.797938
100.48025
125.54158
152.98591
186.0452
225.35831
263.24234
297.55412
329.43111
358.16443
382.99799
404.03457
421.61713
436.13778
448.05771
457.83689
465.87288
472.49009
477.9491
482.45931
486.18981
489.27788
491.83553
493.95451
42.725537
42.908242
43.714409
46.204795
51.844973
62.418322
78.726336
100.42165
125.51848
153.00416
186.10208
225.45531
263.37232
297.71724
329.61914
358.36124
383.19445
404.2265
421.80276
436.31695
448.23129
458.00595
466.03835
472.65275
478.10957
482.61807
486.34725
489.43433
491.99125
494.10972
42.724679
42.906492
43.706938
46.182788
51.801824
62.352797
78.654623
100.36283
125.49509
153.02211
186.15864
225.55205
263.50214
297.8802
329.80697
358.55782
383.39066
404.41817
421.98812
436.49586
448.40462
458.17475
466.20358
472.81517
478.26979
482.77658
486.50445
489.59054
492.14674
494.2647
42.723823
42.904753
43.699508
46.160858
51.758762
62.287267
78.582799
100.30379
125.47142
153.03973
186.21488
225.64854
263.63178
298.04302
329.99459
358.75416
383.58661
404.60957
422.17322
436.67452
448.5777
458.34332
466.36859
472.97737
478.42979
482.93489
486.66145
489.74655
492.30202
494.41946
42.722969
42.903026
43.692119
46.139023
51.715772
62.221734
78.510862
100.24452
125.44747
153.05705
186.27079
225.74478
263.76125
298.20568
330.18204
358.95027
383.7823
404.80071
422.35806
436.85291
448.75054
458.51166
466.53335
473.13934
478.58958
483.09297
486.81823
489.90234
492.45709
494.57402
42.722116
42.90131
43.684786
46.117253
51.672847
62.156204
78.438814
100.18501
125.42324
153.07405
186.32639
225.84078
263.89057
298.36821
330.36931
359.14617
383.97777
404.99162
422.54267
437.0311
448.92317
458.67979
466.69793
473.30112
478.74918
483.25087
486.97483
490.05796
492.61198
494.7284
42.721265
42.899605
43.677504
46.095584
51.630018
62.090666
78.366651
100.12529
125.39872
153.09073
186.38166
225.93653
264.01975
298.53061
330.55638
359.34185
384.173
405.18228
422.72702
437.20903
449.09555
458.84769
466.86228
473.46268
478.90855
483.40855
487.13121
490.21336
492.76666
494.88256
42.720416
42.897909
43.670264
46.073981
51.587245
62.025129
78.294378
100.06533
125.37391
153.1071
186.43661
226.03204
264.14876
298.69286
330.74326
359.5373
384.36798
405.37268
422.91112
437.38672
449.26771
459.01537
467.02642
473.62403
479.06773
483.56604
487.28739
490.36856
492.92114
495.03653
42.719568
42.896225
43.663063
46.052472
51.544567
61.959595
78.221986
100.00514
125.34882
153.12314
186.49124
226.12732
264.27763
298.85498
330.92997
359.73252
384.56272
405.56282
423.09497
437.56416
449.43963
459.18282
467.19033
473.78517
479.22669
483.72332
487.44338
490.52357
493.07542
495.19031
42.718721
42.894549
43.655901
46.031043
51.501961
61.894056
78.149485
99.944726
125.32344
153.13888
186.54554
226.22236
264.40637
299.01698
331.11651
359.92754
384.75724
405.75275
423.27861
437.74141
449.61136
459.3501
467.35408
473.94614
479.3855
483.88044
487.5992
490.67841
493.22955
495.34393
42.717876
42.892883
43.648782
46.009687
51.459427
61.828524
78.076862
99.884078
125.29776
153.15429
186.59953
226.31718
264.53498
299.17886
331.30286
360.12235
384.95152
405.94243
423.462
437.91841
449.78287
459.51715
467.51761
474.1069
479.54409
484.03735
487.75483
490.83306
493.38348
495.49735
42.717032
42.891227
43.641716
45.98843
51.41699
61.76299
78.004128
99.823188
125.27179
153.16939
186.65319
226.41178
264.66345
299.34061
331.48903
360.31693
385.14556
406.13187
423.64514
438.09519
449.95415
459.684
467.68094
474.26747
479.7025
484.19409
487.91027
490.98753
493.53723
495.6506
42.716189
42.889579
43.634694
45.967234
51.374613
61.697457
77.93127
99.762064
125.24552
153.18416
186.70653
226.50615
264.7918
299.50223
331.67503
360.51128
385.33936
406.32106
423.82804
438.27173
450.12521
459.85063
467.84406
474.42784
479.86072
484.35063
488.06552
491.14181
493.6908
495.80366
42.715346
42.887939
43.62771
45.946142
51.332338
61.631937
77.858299
99.700703
125.21897
153.19862
186.75955
226.60031
264.92003
299.66375
331.86085
360.70544
385.53295
406.51003
424.01074
438.44808
450.29609
460.01709
468.00703
474.58806
480.01878
484.50702
488.22063
491.29595
493.84422
495.95658
42.714505
42.886308
43.620762
45.925116
51.290136
61.566411
77.7852
99.639096
125.19212
153.21276
186.81226
226.69426
265.04816
299.82514
332.04649
360.89938
385.7263
406.69876
424.1932
438.62419
450.46675
460.18334
468.16978
474.74807
480.17665
484.66322
488.37555
491.4499
493.99746
496.10931
42.713664
42.884685
43.61385
45.904176
51.248012
61.500893
77.711987
99.577245
125.16497
153.22658
186.86465
226.78801
265.17618
299.98642
332.23195
361.09309
385.91941
406.88724
424.37541
438.80008
450.6372
460.34939
468.33235
474.9079
480.33434
484.81924
488.5303
491.60368
494.15053
496.26188
42.712824
42.883072
43.606981
45.883324
51.205986
61.435386
77.638642
99.515151
125.13753
153.24009
186.91673
226.88155
265.30408
300.14758
332.41724
361.28657
386.11228
407.07548
424.55738
438.97574
450.80743
460.51523
468.49472
475.06754
480.49184
484.97509
488.68487
491.75729
494.30343
496.41428
42.711985
42.881466
43.600162
45.862537
51.164027
61.369875
77.565181
99.452807
125.10978
153.25328
186.9685
226.97489
265.43189
300.30863
332.60234
361.47985
386.30493
407.26351
424.73916
439.15122
450.9775
460.68092
468.65694
475.22704
480.64921
485.1308
488.8393
491.91076
494.45619
496.56654
42.711146
42.879867
43.593381
45.841854
51.122171
61.304377
77.491584
99.390208
125.08172
153.26614
187.01996
227.06804
265.5596
300.46955
332.78726
361.67291
386.49735
407.45128
424.92069
439.32646
451.14733
460.84639
468.81896
475.38634
480.80638
485.28632
488.99355
492.06405
494.60877
496.71862
42.710307
42.878275
43.586635
45.82123
51.080391
61.238882
77.417867
99.327358
125.05335
153.27869
187.07114
227.161
265.68721
300.63035
332.97199
361.86574
386.68952
407.63882
425.10199
439.50148
451.31697
461.01167
468.98079
475.54546
480.96339
485.44168
489.14764
492.21718
494.7612
496.87055
42.709469
42.87669
43.579923
45.800704
51.038697
61.17339
77.344013
99.264252
125.02466
153.29092
187.12203
227.25377
265.8147
300.79102
333.15653
362.05833
386.88144
407.82611
425.28304
439.67628
451.48639
461.17675
469.14244
475.7044
481.12021
485.59686
489.30156
492.37015
494.91346
497.02231
42.708631
42.875112
43.573244
45.780253
50.9971
61.107914
77.270035
99.200882
124.99565
153.30284
187.17265
227.34635
265.94208
300.95156
333.34089
362.25073
387.07316
408.0132
425.46391
439.8509
451.65566
461.34168
469.30394
475.86321
481.27691
485.75192
489.45536
492.52299
495.0656
497.17395
42.707792
42.873543
43.566606
45.759873
50.955577
61.042436
77.195916
99.137254
124.96631
153.31443
187.22303
227.43875
266.06934
301.11197
333.52505
362.44289
387.26464
408.20004
425.64454
440.02529
451.8247
461.50641
469.46525
476.02183
481.43342
485.90679
489.60898
492.67566
495.21756
497.32542
42.706954
42.871979
43.560015
45.739595
50.914158
60.976964
77.12167
99.073362
124.93665
153.32569
187.27314
227.53098
266.19647
301.27224
333.70904
362.63483
387.45588
408.38664
425.82493
440.19947
451.99354
461.67095
469.62637
476.18028
481.58977
486.06151
489.76244
492.82817
495.36938
497.47673
42.706116
42.870422
43.553459
45.719372
50.872821
60.911513
77.047279
99.009197
124.90666
153.33663
187.323
227.62303
266.32347
301.43238
333.89282
362.82654
387.64688
408.573
426.00509
440.37343
452.16219
461.83529
469.78732
476.33855
481.74595
486.21606
489.91574
492.98052
495.52103
497.62789
42.705278
42.868869
43.546935
45.699255
50.831575
60.846057
76.972756
98.944765
124.87633
153.34725
187.37261
227.7149
266.45035
301.59239
334.07643
363.01806
387.83767
408.75917
426.18507
440.54722
452.33068
461.9995
469.94813
476.49669
481.90201
486.37049
490.06892
493.13276
495.67257
497.77894
42.70444
42.867322
43.540443
45.679204
50.790428
60.780614
76.898086
98.880061
124.84568
153.35754
187.42196
227.8066
266.57711
301.75228
334.25986
363.20935
388.02823
408.94509
426.36481
440.72079
452.49896
462.16351
470.10876
476.65466
482.05789
486.52476
490.22194
493.28483
495.82395
497.92982
42.703602
42.86578
43.533981
45.659232
50.749363
60.715187
76.823278
98.815076
124.81468
153.36751
187.47106
227.89811
266.70376
301.91204
334.44311
363.40043
388.21856
409.13078
426.54434
440.89416
452.66705
462.32734
470.26922
476.81247
482.21362
486.67887
490.37481
493.43676
495.97518
498.08057
42.702764
42.864243
43.527556
45.639353
50.708402
60.649756
76.748323
98.749815
124.78335
153.37716
187.51991
227.98946
266.83028
302.07168
334.62619
363.59129
388.40867
409.31626
426.72365
441.06732
452.83495
462.49099
470.42951
476.97011
482.36919
486.83283
490.52752
493.58854
496.12627
498.23116
42.701925
42.86271
43.521176
45.61953
50.667528
60.584346
76.673225
98.684275
124.75167
153.38647
187.5685
228.08064
266.95669
302.23121
334.80909
363.78197
388.59859
409.50155
426.90279
441.24033
453.00271
462.65451
470.58967
477.12763
482.52465
486.98668
490.68014
493.74021
496.27725
498.38165
42.701086
42.861182
43.51483
45.599818
50.626754
60.518946
76.597977
98.618445
124.71965
153.39546
187.61685
228.17164
267.08299
302.39063
334.99183
363.97244
388.78828
409.6866
427.08169
441.41312
453.17027
462.81784
470.74966
477.28499
482.67994
487.14037
490.83259
493.89173
496.42808
498.53199
42.700246
42.859658
43.508513
45.580166
50.586079
60.453547
76.522581
98.552331
124.68729
153.40412
187.66493
228.26248
267.20919
302.54993
335.1744
364.1627
388.97775
409.87143
427.26039
441.58572
453.33765
462.98101
470.90949
477.4422
482.8351
487.29392
490.98492
494.04312
496.57878
498.6822
42.699405
42.858139
43.502226
45.560597
50.545494
60.388171
76.447034
98.485928
124.65459
153.41246
187.71275
228.35313
267.33528
302.70912
335.35681
364.35277
389.16702
410.05606
427.43889
441.75813
453.50485
463.14401
471.06916
477.59925
482.9901
487.44733
491.13709
494.19437
496.72934
498.83227
42.698563
42.856624
43.495967
45.541117
50.505015
60.322805
76.371334
98.419228
124.62154
153.42046
187.76033
228.44362
267.46126
302.86822
335.53906
364.54266
389.35611
410.24052
427.61724
441.9304
453.67192
463.30689
471.22872
477.7562
483.145
487.60064
491.28917
494.34552
496.8798
498.98225
42.69772
42.855112
43.489738
45.521693
50.464628
60.257442
76.295483
98.352236
124.58814
153.42814
187.80764
228.53396
267.58716
303.02722
335.72118
364.73237
389.54499
410.42476
427.79537
442.10246
453.83881
463.4696
471.38812
477.91299
483.29975
487.7538
491.44111
494.49653
497.03013
499.13209
42.696877
42.853605
43.483554
45.502382
50.424349
60.192106
76.219474
98.284949
124.5544
153.43549
187.8547
228.62412
267.71296
303.18613
335.90315
364.92189
389.73367
410.6088
427.97331
442.27436
454.00554
463.63216
471.54738
478.06965
483.45437
487.90684
491.59293
494.64743
497.18034
499.28181
42.696032
42.852101
43.477404
45.483129
50.384172
60.126779
76.143313
98.217357
124.5203
153.44251
187.9015
228.71413
267.83868
303.34496
336.08497
365.11124
389.92217
410.79266
428.15107
442.44608
454.17211
463.79457
471.70649
478.22617
483.60886
488.05975
491.74462
494.79819
497.33042
499.43141
42.695186
42.850602
43.471281
45.463959
50.344093
60.061457
76.066991
98.149466
124.48585
153.4492
187.94805
228.80397
267.96431
303.50371
336.26667
365.30044
390.11052
410.97636
428.32869
442.61768
454.33856
463.95687
471.86551
478.3826
483.76327
488.21257
491.89623
494.94888
497.48043
499.58093
42.694338
42.849105
43.465185
45.444878
50.304121
59.996167
75.990514
98.081272
124.45104
153.45556
187.99435
228.89365
268.08985
303.66239
336.44824
365.48947
390.29868
411.15988
428.50612
442.7891
454.50485
464.11902
472.02438
478.53889
483.91754
488.36527
492.04771
495.09944
497.63031
499.73032
42.69349
42.847613
43.459116
45.425852
50.264247
59.930884
75.913874
98.012768
124.41589
153.46158
188.04039
228.98318
268.21533
303.82099
336.6297
365.67835
390.48666
411.34321
428.68338
442.96036
454.671
464.28105
472.18314
478.69507
484.0717
488.51786
492.1991
495.24991
497.78009
499.87963
42.692639
42.846126
43.453075
45.406937
50.22449
59.86561
75.837079
97.94396
124.38038
153.46728
188.08617
229.07255
268.34074
303.97954
336.81104
365.86708
390.67449
411.52639
428.86049
443.13148
454.83702
464.44294
472.34177
478.85114
484.22575
488.67034
492.35037
495.40026
497.92977
500.02882
42.691788
42.844639
43.447071
45.388083
50.184836
59.800371
75.76012
97.874842
124.34451
153.47266
188.13169
229.16178
268.46609
304.13804
336.99228
366.0557
390.86219
411.70944
429.03748
443.3025
455.00294
464.60475
472.50032
479.00713
484.37973
488.82276
492.50158
495.55056
498.07939
500.17796
42.690935
42.843154
43.441112
45.369308
50.14529
59.735139
75.683004
97.80541
124.3083
153.4777
188.17696
229.25086
268.59137
304.2965
337.17344
366.24417
391.04974
411.89233
429.21431
443.47336
455.16872
464.76643
472.65875
479.163
484.5336
488.97506
492.65268
495.70074
498.2289
500.32699
42.690081
42.84167
43.435183
45.350625
50.105852
59.669918
75.605721
97.735668
124.27171
153.48242
188.22198
229.33979
268.71661
304.45492
337.35451
366.43253
391.23715
412.07508
429.391
443.6441
455.33438
464.92801
472.81709
479.31878
484.68738
489.12729
492.8037
495.85086
498.37834
500.47595
42.689223
42.840188
43.429282
45.331998
50.066521
59.604735
75.52828
97.665608
124.23477
153.48681
188.26675
229.42858
268.84179
304.6133
337.53549
366.62077
391.42443
412.25769
429.56756
443.81472
455.49994
465.08948
472.97533
479.47448
484.84108
489.27943
492.95464
496.00089
498.5277
500.62482
42.688364
42.838706
43.42341
45.313476
50.027309
59.539561
75.450674
97.595231
124.19747
153.49086
188.31126
229.51722
268.96693
304.77167
337.71641
366.80892
391.61161
412.4402
429.74403
443.98526
455.66543
465.25089
473.13351
479.63012
484.99473
489.43152
493.10554
496.15088
498.67701
500.77366
42.687502
42.837229
43.417567
45.295019
49.988203
59.474399