/*--------------------------------*- C++ -*----------------------------------*\
| =========                 |                                                 |
| \\      /  F ield         | OpenFOAM: The Open Source CFD Toolbox           |
|  \\    /   O peration     | Version:  v2012                                 |
|   \\  /    A nd           | Website:  www.openfoam.com                      |
|    \\/     M anipulation  |                                                 |
\*---------------------------------------------------------------------------*/
FoamFile
{
    version     2.0;
    format      ascii;
    class       volVectorField;
    location    "750";
    object      U;
}
// * * * * * * * * * * * * * * * * * * * * * * * * * * * * * * * * * * * * * //

dimensions      [0 1 -1 0 0 0 0];


internalField   nonuniform List<vector> 
24000
(
(29.304516 -0.0075238854 0)
(29.455384 -0.020728724 0)
(29.946675 -0.028012708 0)
(30.857161 -0.020986853 0)
(32.19607 -0.0079209185 0)
(33.863276 0.0056838729 0)
(35.626367 0.016138785 0)
(37.284508 0.023484563 0)
(38.586424 0.026507139 0)
(39.42096 0.026339538 0)
(39.697799 0.024343151 0)
(39.047678 0.020551376 0)
(37.390116 0.01793165 0)
(34.998407 0.015688725 0)
(31.92383 0.012219569 0)
(28.322378 0.010023072 0)
(24.551836 0.0082031349 0)
(20.870213 0.0064199052 0)
(17.44271 0.0047629661 0)
(14.378322 0.0035239014 0)
(11.716712 0.0025406344 0)
(9.4393637 0.0017739859 0)
(7.5050551 0.0011939924 0)
(5.8686498 0.00076918543 0)
(4.487873 0.0004691696 0)
(3.3251096 0.00026597757 0)
(2.3475627 0.00013548123 0)
(1.5269263 5.7513351e-05 0)
(0.83892533 1.709838e-05 0)
(0.26283792 8.0630667e-07 0)
(29.290854 -0.0081669269 0)
(29.442488 -0.022877445 0)
(29.934837 -0.030887266 0)
(30.844242 -0.022341705 0)
(32.180462 -0.0064656965 0)
(33.844629 0.01013342 0)
(35.604743 0.022946599 0)
(37.260976 0.031692904 0)
(38.562134 0.034608261 0)
(39.396241 0.033102849 0)
(39.672332 0.030278405 0)
(39.021646 0.026785856 0)
(37.36361 0.02369976 0)
(34.970061 0.020015488 0)
(31.89282 0.016214355 0)
(28.289503 0.01261125 0)
(24.517419 0.0095821234 0)
(20.834477 0.0071069727 0)
(17.406216 0.0051513439 0)
(14.341866 0.0036503001 0)
(11.681241 0.0025280603 0)
(9.4059321 0.0017048916 0)
(7.474662 0.0011136584 0)
(5.8420778 0.00069934842 0)
(4.4656094 0.00041729992 0)
(3.3073476 0.00023210726 0)
(2.3342532 0.00011604693 0)
(1.5178452 4.8117473e-05 0)
(0.83373812 1.3731628e-05 0)
(0.2611517 6.2238214e-07 0)
(29.278873 -0.0084336269 0)
(29.429437 -0.023559824 0)
(29.918624 -0.031606685 0)
(30.8232 -0.022561414 0)
(32.15515 -0.0059682951 0)
(33.816514 0.011554052 0)
(35.575881 0.025020545 0)
(37.233054 0.033780604 0)
(38.536494 0.036415368 0)
(39.37236 0.034591521 0)
(39.649545 0.031133926 0)
(38.999939 0.027262371 0)
(37.342765 0.023317967 0)
(34.948869 0.018856852 0)
(31.870503 0.014373652 0)
(28.267354 0.010286377 0)
(24.497134 0.0070312673 0)
(20.817388 0.0045806848 0)
(17.393301 0.0028545192 0)
(14.333479 0.0017109115 0)
(11.676904 0.00099417812 0)
(9.4047205 0.00056119827 0)
(7.4755578 0.00030726663 0)
(5.8441738 0.00016275073 0)
(4.468191 8.2450375e-05 0)
(3.3099041 3.912358e-05 0)
(2.3364521 1.6867671e-05 0)
(1.519494 6.1260067e-06 0)
(0.83474667 1.4480126e-06 0)
(0.26149955 2.8367334e-07 0)
(29.266295 -0.0086210037 0)
(29.416204 -0.024020438 0)
(29.903466 -0.032079884 0)
(30.804486 -0.022749871 0)
(32.132679 -0.0056333666 0)
(33.791291 0.012512456 0)
(35.549576 0.026363245 0)
(37.206915 0.035223259 0)
(38.511478 0.037859352 0)
(39.348178 0.036009693 0)
(39.625685 0.032491809 0)
(38.976127 0.028449439 0)
(37.318813 0.024344065 0)
(34.923803 0.019749101 0)
(31.843999 0.01518548 0)
(28.241165 0.011076983 0)
(24.472816 0.007833728 0)
(20.795805 0.0053843173 0)
(17.374865 0.0036184681 0)
(14.318162 0.0023895982 0)
(11.664323 0.0015556842 0)
(9.3944429 0.00099550668 0)
(7.467227 0.00062254543 0)
(5.8375144 0.00037725871 0)
(4.4629841 0.00021875535 0)
(3.3059657 0.00011894612 0)
(2.3336203 5.8463455e-05 0)
(1.5176232 2.3971948e-05 0)
(0.83370519 6.7684894e-06 0)
(0.26116907 4.5124781e-07 0)
(29.253642 -0.008735325 0)
(29.402917 -0.024244333 0)
(29.888361 -0.032300664 0)
(30.785901 -0.022852027 0)
(32.110305 -0.0054616712 0)
(33.766239 0.013027543 0)
(35.523377 0.027085387 0)
(37.1808 0.036015386 0)
(38.486386 0.038677038 0)
(39.323877 0.036838571 0)
(39.601643 0.033282519 0)
(38.952012 0.02916925 0)
(37.294476 0.024947748 0)
(34.898344 0.02024586 0)
(31.817137 0.015583534 0)
(28.214622 0.011383525 0)
(24.44813 0.0080524236 0)
(20.773871 0.0055235249 0)
(17.356208 0.0036932288 0)
(14.302893 0.0024189812 0)
(11.652119 0.0015583157 0)
(9.3848353 0.00098553336 0)
(7.4597615 0.00060895362 0)
(5.8317996 0.00036474674 0)
(4.4586963 0.00020920291 0)
(3.3028412 0.00011259273 0)
(2.3314455 5.4819453e-05 0)
(1.5162256 2.2287689e-05 0)
(0.83294512 6.2259331e-06 0)
(0.2609333 4.3171302e-07 0)
(29.240915 -0.008804722 0)
(29.389631 -0.02434736 0)
(29.873419 -0.032418356 0)
(30.767596 -0.022936575 0)
(32.088253 -0.0053887657 0)
(33.741539 0.013307058 0)
(35.497492 0.027504364 0)
(37.154935 0.036494179 0)
(38.461457 0.039197916 0)
(39.299661 0.037387038 0)
(39.577602 0.033833005 0)
(38.927758 0.029684416 0)
(37.269848 0.025400531 0)
(34.872462 0.02063498 0)
(31.789725 0.015911457 0)
(28.187416 0.011652316 0)
(24.422705 0.0082657127 0)
(20.751167 0.0056881145 0)
(17.336783 0.0038171666 0)
(14.286872 0.002510158 0)
(11.639191 0.0016237153 0)
(9.3745482 0.001031112 0)
(7.4516769 0.00063965942 0)
(5.8255405 0.0003846254 0)
(4.4539496 0.00022143298 0)
(3.2993486 0.00011962284 0)
(2.3289937 5.8463997e-05 0)
(1.5146382 2.3861754e-05 0)
(0.83207629 6.7045907e-06 0)
(0.26066208 4.6102392e-07 0)
(29.228165 -0.0088452516 0)
(29.376367 -0.024378685 0)
(29.85857 -0.032481244 0)
(30.749422 -0.023015695 0)
(32.066343 -0.0053811787 0)
(33.716989 0.013439039 0)
(35.471745 0.027739122 0)
(37.129186 0.036774444 0)
(38.43661 0.039519688 0)
(39.275494 0.037733908 0)
(39.553566 0.034189045 0)
(38.903426 0.030017999 0)
(37.245046 0.025692733 0)
(34.846324 0.020883967 0)
(31.761979 0.016117914 0)
(28.159808 0.011817253 0)
(24.396838 0.0083923361 0)
(20.728017 0.005781695 0)
(17.316935 0.0038840778 0)
(14.270473 0.0025566716 0)
(11.625941 0.0016551663 0)
(9.3639955 0.0010517618 0)
(7.4433795 0.0006528027 0)
(5.8191157 0.00039267401 0)
(4.4490773 0.00022612493 0)
(3.2957637 0.0001221645 0)
(2.3264773 5.9704224e-05 0)
(1.5130092 2.4368522e-05 0)
(0.83118472 6.8421079e-06 0)
(0.26038376 4.6425665e-07 0)
(29.215415 -0.0088684452 0)
(29.363134 -0.024370649 0)
(29.843792 -0.032518927 0)
(30.731334 -0.023097395 0)
(32.044527 -0.0054173632 0)
(33.692536 0.013479038 0)
(35.446091 0.027861858 0)
(37.103521 0.03693029 0)
(38.411828 0.039714408 0)
(39.251372 0.037949952 0)
(39.529545 0.034415263 0)
(38.879052 0.030230069 0)
(37.220134 0.025877812 0)
(34.820019 0.021040493 0)
(31.734013 0.016247029 0)
(28.131937 0.011920716 0)
(24.370688 0.0084719251 0)
(20.704583 0.0058409063 0)
(17.296817 0.0039269447 0)
(14.253829 0.0025869932 0)
(11.612475 0.0016760849 0)
(9.3532567 0.001065853 0)
(7.434926 0.00066203509 0)
(5.8125631 0.00039853515 0)
(4.4441035 0.00022969729 0)
(3.2921014 0.00012424053 0)
(2.3239048 6.080162e-05 0)
(1.511343 2.4850839e-05 0)
(0.83027237 6.9946676e-06 0)
(0.26009885 4.779953e-07 0)
(29.202677 -0.0088814339 0)
(29.349935 -0.02434077 0)
(29.829065 -0.032545146 0)
(30.713301 -0.023184028 0)
(32.022767 -0.0054843158 0)
(33.668136 0.013457519 0)
(35.42049 0.027911717 0)
(37.077905 0.037005463 0)
(38.387088 0.039826776 0)
(39.227278 0.038079141 0)
(39.505533 0.034554661 0)
(38.854648 0.030361194 0)
(37.195147 0.025991406 0)
(34.7936 0.021134663 0)
(31.705902 0.016324081 0)
(28.103896 0.011983038 0)
(24.344355 0.0085203567 0)
(20.680967 0.0058773032 0)
(17.276528 0.0039534492 0)
(14.237029 0.0026056811 0)
(11.59887 0.0016888312 0)
(9.3423988 0.0010742018 0)
(7.4263729 0.00066723853 0)
(5.8059293 0.00040156934 0)
(4.4390654 0.00023131787 0)
(3.28839 0.00012499242 0)
(2.3212968 6.1082516e-05 0)
(1.5096532 2.4920202e-05 0)
(0.82934685 6.9929249e-06 0)
(0.25980973 4.6524467e-07 0)
(29.18996 -0.0088885355 0)
(29.336771 -0.024298907 0)
(29.814377 -0.032567212 0)
(30.695304 -0.023276985 0)
(32.001041 -0.0055731336 0)
(33.643765 0.013395128 0)
(35.394918 0.027913913 0)
(37.052319 0.037027232 0)
(38.362371 0.039884634 0)
(39.203202 0.038149855 0)
(39.481527 0.034635639 0)
(38.830224 0.030437619 0)
(37.17011 0.026056529 0)
(34.767107 0.021187281 0)
(31.677699 0.016366629 0)
(28.075751 0.012016995 0)
(24.317913 0.0085467501 0)
(20.657242 0.0058974533 0)
(17.256136 0.0039684993 0)
(14.220134 0.0026166258 0)
(11.58518 0.0016965824 0)
(9.3314665 0.0010795785 0)
(7.4177566 0.00067087548 0)
(5.7992435 0.00040396965 0)
(4.4339859 0.00023284308 0)
(3.2846468 0.00012590582 0)
(2.3186658 6.1584436e-05 0)
(1.507948 2.5154976e-05 0)
(0.82841276 7.0753068e-06 0)
(0.25951789 4.76304e-07 0)
(29.177268 -0.008892324 0)
(29.32364 -0.024250841 0)
(29.799723 -0.032587939 0)
(30.677331 -0.023374848 0)
(31.979337 -0.005678012 0)
(33.619408 0.013303601 0)
(35.36936 0.027883697 0)
(37.026747 0.037012142 0)
(38.337667 0.039904487 0)
(39.179135 0.038180147 0)
(39.457523 0.034676745 0)
(38.805786 0.030476329 0)
(37.145038 0.026088935 0)
(34.740564 0.02121279 0)
(31.649439 0.016387104 0)
(28.047544 0.012033682 0)
(24.291407 0.0085600618 0)
(20.633456 0.0059079742 0)
(17.235687 0.0039767775 0)
(14.203184 0.0026230874 0)
(11.57144 0.0017014203 0)
(9.320489 0.0010830243 0)
(7.4091008 0.00067323541 0)
(5.7925244 0.00040550601 0)
(4.4288793 0.000233784 0)
(3.2808826 0.00012643602 0)
(2.3160194 6.1851211e-05 0)
(1.5062326 2.5264673e-05 0)
(0.82747291 7.1010327e-06 0)
(0.25922422 4.7398366e-07 0)
(29.164603 -0.0088943273 0)
(29.310543 -0.024199983 0)
(29.785096 -0.032608839 0)
(30.659376 -0.0234764 0)
(31.957645 -0.005794003 0)
(33.595054 0.013191747 0)
(35.343806 0.027831365 0)
(37.00118 0.03697199 0)
(38.312968 0.039898145 0)
(39.155072 0.038182556 0)
(39.433519 0.034690518 0)
(38.781338 0.030489252 0)
(37.119941 0.026098719 0)
(34.713988 0.021218722 0)
(31.621142 0.016391219 0)
(28.019301 0.012037854 0)
(24.264865 0.0085637608 0)
(20.609636 0.0059111779 0)
(17.215205 0.0039795972 0)
(14.186203 0.0026255798 0)
(11.55767 0.0017034487 0)
(9.3094828 0.0010845792 0)
(7.4004192 0.00067437846 0)
(5.7857829 0.00040632316 0)
(4.4237542 0.00023434823 0)
(3.2771037 0.00012681068 0)
(2.3133621 6.2073725e-05 0)
(1.5045098 2.5374633e-05 0)
(0.82652887 7.1437862e-06 0)
(0.2589292 4.8100347e-07 0)
(29.151965 -0.0088952612 0)
(29.297477 -0.024147648 0)
(29.77049 -0.03262998 0)
(30.641431 -0.023580667 0)
(31.93596 -0.0059183897 0)
(33.570697 0.013065005 0)
(35.318249 0.02776319 0)
(36.975612 0.036913397 0)
(38.288269 0.039873451 0)
(39.13101 0.038166106 0)
(39.409515 0.034686095 0)
(38.756882 0.030486024 0)
(37.094827 0.026094517 0)
(34.68739 0.021212193 0)
(31.592826 0.016384544 0)
(27.991041 0.012033093 0)
(24.23831 0.008560766 0)
(20.585807 0.0059096547 0)
(17.194715 0.0039790901 0)
(14.169213 0.0026256142 0)
(11.543889 0.0017036678 0)
(9.2984662 0.001084771 0)
(7.3917279 0.00067445988 0)
(5.7790329 0.00040629141 0)
(4.4186218 0.00023424812 0)
(3.273319 0.00012669023 0)
(2.3107004 6.196873e-05 0)
(1.502784 2.5305127e-05 0)
(0.82558311 7.108812e-06 0)
(0.25863361 4.7013702e-07 0)
(29.139357 -0.0088952946 0)
(29.284442 -0.024093894 0)
(29.755904 -0.032651404 0)
(30.623494 -0.023687362 0)
(31.914279 -0.0060488937 0)
(33.546331 0.012926658 0)
(35.292684 0.027683237 0)
(36.950039 0.036841429 0)
(38.263567 0.039835384 0)
(39.106946 0.03813598 0)
(39.385508 0.034668273 0)
(38.73242 0.030470598 0)
(37.069702 0.026079432 0)
(34.660779 0.021196643 0)
(31.564503 0.016370802 0)
(27.962781 0.012022124 0)
(24.211758 0.008552686 0)
(20.561982 0.0059043348 0)
(17.17423 0.003975917 0)
(14.152225 0.0026238466 0)
(11.530107 0.0017027723 0)
(9.2874469 0.0010844101 0)
(7.3830326 0.0006743819 0)
(5.7722784 0.00040635348 0)
(4.4134852 0.00023436078 0)
(3.2695307 0.00012679931 0)
(2.3080358 6.2053786e-05 0)
(1.5010562 2.5359806e-05 0)
(0.82463621 7.1371329e-06 0)
(0.25833766 4.7716748e-07 0)
(29.126777 -0.0088944655 0)
(29.271438 -0.02403892 0)
(29.741336 -0.032672685 0)
(30.605561 -0.023796131 0)
(31.892597 -0.0061841679 0)
(33.521954 0.012780581 0)
(35.267107 0.02759544 0)
(36.924456 0.036759588 0)
(38.238859 0.039787171 0)
(39.082879 0.038095438 0)
(39.361498 0.034640223 0)
(38.707954 0.030445332 0)
(37.04457 0.026056008 0)
(34.634161 0.021174477 0)
(31.536179 0.016352132 0)
(27.934527 0.012008202 0)
(24.185218 0.0085426333 0)
(20.538173 0.005897548 0)
(17.15376 0.0039717209 0)
(14.135249 0.0026215273 0)
(11.516332 0.0017015909 0)
(9.2764309 0.0010838599 0)
(7.3743384 0.00067416572 0)
(5.7655238 0.00040628868 0)
(4.4083477 0.00023435451 0)
(3.2657413 0.00012681184 0)
(2.3053703 6.2069385e-05 0)
(1.4993276 2.5368441e-05 0)
(0.82368882 7.1347855e-06 0)
(0.25804154 4.7376717e-07 0)
(29.114227 -0.0088928872 0)
(29.258465 -0.023983263 0)
(29.726786 -0.032693346 0)
(30.587633 -0.023904902 0)
(31.870915 -0.0063222672 0)
(33.497563 0.012628048 0)
(35.241516 0.027501491 0)
(36.898861 0.036670289 0)
(38.214143 0.039731404 0)
(39.058807 0.038047349 0)
(39.337485 0.034604862 0)
(38.683485 0.030413341 0)
(37.019431 0.026026905 0)
(34.607538 0.021147347 0)
(31.507859 0.016328586 0)
(27.906285 0.011990205 0)
(24.158695 0.0085294257 0)
(20.514382 0.0058882394 0)
(17.133308 0.0039655209 0)
(14.118286 0.0026176891 0)
(11.502567 0.0016992653 0)
(9.265421 0.0010824854 0)
(7.3656474 0.00067340293 0)
(5.7587706 0.00040590786 0)
(4.4032106 0.00023419357 0)
(3.2619517 0.00012676891 0)
(2.3027042 6.20744e-05 0)
(1.4975985 2.5383883e-05 0)
(0.82274109 7.1485251e-06 0)
(0.2577453 4.783954e-07 0)
(29.101707 -0.0088906538 0)
(29.245524 -0.023926985 0)
(29.712252 -0.032712953 0)
(30.569706 -0.024013465 0)
(31.849229 -0.0064622241 0)
(33.473155 0.012471513 0)
(35.215909 0.027403468 0)
(36.873254 0.036575843 0)
(38.189419 0.039670754 0)
(39.034729 0.037994355 0)
(39.31347 0.034564887 0)
(38.659014 0.030377946 0)
(36.994291 0.02599489 0)
(34.580917 0.021117575 0)
(31.479549 0.016302791 0)
(27.878063 0.011969836 0)
(24.132197 0.0085143713 0)
(20.490621 0.0058778138 0)
(17.112885 0.0039586788 0)
(14.101349 0.0026133686 0)
(11.488822 0.0016965533 0)
(9.2544261 0.0010807442 0)
(7.356968 0.00067226113 0)
(5.7520261 0.00040514867 0)
(4.39808 0.00023369063 0)
(3.2581667 0.00012644787 0)
(2.3000414 6.1883398e-05 0)
(1.4958715 2.5283604e-05 0)
(0.82179447 7.1053597e-06 0)
(0.25744939 4.6761184e-07 0)
(29.089217 -0.0088877104 0)
(29.232614 -0.023869297 0)
(29.69773 -0.032730901 0)
(30.551778 -0.024121787 0)
(31.827538 -0.0066034405 0)
(33.44873 0.012311359 0)
(35.190285 0.027301519 0)
(36.847631 0.036476683 0)
(38.164684 0.03960598 0)
(39.010645 0.03793722 0)
(39.289451 0.034520682 0)
(38.634543 0.030338733 0)
(36.969151 0.025959244 0)
(34.554298 0.0210846 0)
(31.451253 0.016275015 0)
(27.849866 0.011948103 0)
(24.10573 0.0084980202 0)
(20.466892 0.0058663373 0)
(17.092492 0.0039510787 0)
(14.084436 0.0026084961 0)
(11.475096 0.0016935268 0)
(9.243445 0.0010789408 0)
(7.3482982 0.00067121898 0)
(5.7452882 0.00040457781 0)
(4.3929538 0.00023340374 0)
(3.2543848 0.00012630989 0)
(2.2973805 6.1825437e-05 0)
(1.4941457 2.527129e-05 0)
(0.82084846 7.113447e-06 0)
(0.25715368 4.7318437e-07 0)
(29.076758 -0.0088839336 0)
(29.219735 -0.023809836 0)
(29.683223 -0.032746926 0)
(30.533849 -0.024229953 0)
(31.805842 -0.0067454984 0)
(33.424286 0.012148655 0)
(35.164641 0.027197253 0)
(36.821992 0.036374564 0)
(38.139937 0.039537934 0)
(38.986553 0.037876596 0)
(39.265427 0.034472905 0)
(38.610071 0.030295871 0)
(36.94401 0.025920679 0)
(34.527684 0.021049649 0)
(31.422971 0.016245837 0)
(27.821693 0.011925978 0)
(24.079294 0.008481776 0)
(20.443198 0.0058549591 0)
(17.072132 0.0039435339 0)
(14.067551 0.0026037631 0)
(11.46139 0.0016906747 0)
(9.2324794 0.0010772859 0)
(7.3396398 0.00067029614 0)
(5.7385584 0.00040408491 0)
(4.3878334 0.0002331584 0)
(3.2506067 0.00012621243 0)
(2.2947223 6.179851e-05 0)
(1.4924215 2.5265067e-05 0)
(0.81990333 7.1071365e-06 0)
(0.25685822 4.6973861e-07 0)
(29.064331 -0.0088793124 0)
(29.206889 -0.023748967 0)
(29.66873 -0.032760495 0)
(30.515919 -0.024337118 0)
(31.78414 -0.0068878268 0)
(33.399821 0.01198492 0)
(35.138977 0.027091531 0)
(36.796335 0.036270021 0)
(38.115178 0.039467167 0)
(38.962453 0.037813219 0)
(39.2414 0.034422741 0)
(38.585598 0.030251168 0)
(36.91887 0.025880918 0)
(34.501075 0.021013476 0)
(31.394705 0.016214292 0)
(27.793547 0.011901128 0)
(24.05289 0.0084632236 0)
(20.419538 0.0058416774 0)
(17.051806 0.0039344295 0)
(14.050694 0.0025978334 0)
(11.447708 0.0016868805 0)
(9.2215309 0.0010749148 0)
(7.3309938 0.00066885895 0)
(5.7318376 0.00040324249 0)
(4.3827192 0.00023268683 0)
(3.246833 0.00012595965 0)
(2.2920668 6.1676802e-05 0)
(1.4906989 2.5221872e-05 0)
(0.81895905 7.1042354e-06 0)
(0.25656302 4.7354071e-07 0)
(29.051936 -0.0088739263 0)
(29.194075 -0.023687042 0)
(29.65425 -0.032771482 0)
(30.497986 -0.024441922 0)
(31.762431 -0.0070294515 0)
(33.375336 0.011819715 0)
(35.113292 0.026984259 0)
(36.77066 0.036163838 0)
(38.090406 0.039394757 0)
(38.938345 0.037748168 0)
(39.217369 0.034371051 0)
(38.561126 0.030205621 0)
(36.893734 0.025840133 0)
(34.474475 0.020976414 0)
(31.36646 0.016182719 0)
(27.765433 0.011876118 0)
(24.026526 0.0084444837 0)
(20.395922 0.0058284986 0)
(17.031521 0.0039256746 0)
(14.033873 0.0025922761 0)
(11.434054 0.001683398 0)
(9.2106059 0.001072728 0)
(7.3223663 0.00066750638 0)
(5.7251311 0.00040242109 0)
(4.3776159 0.00023219995 0)
(3.2430672 0.00012569846 0)
(2.2894168 6.1550548e-05 0)
(1.48898 2.5162796e-05 0)
(0.81801673 7.0753115e-06 0)
(0.25626843 4.6465061e-07 0)
(29.039573 -0.008867745 0)
(29.181293 -0.023623731 0)
(29.639781 -0.032779619 0)
(30.48005 -0.024545278 0)
(31.740714 -0.007170533 0)
(33.350828 0.011654597 0)
(35.087585 0.026876141 0)
(36.744965 0.03605632 0)
(38.065619 0.039320978 0)
(38.914228 0.037681512 0)
(39.193334 0.034317502 0)
(38.536655 0.030158292 0)
(36.868601 0.025797478 0)
(34.447882 0.020937426 0)
(31.338235 0.01615018 0)
(27.73735 0.011850989 0)
(24.0002 0.0084254923 0)
(20.372345 0.005814944 0)
(17.011274 0.0039165032 0)
(14.017084 0.0025862707 0)
(11.420426 0.0016795542 0)
(9.1996993 0.0010703156 0)
(7.3137525 0.00066602151 0)
(5.7184346 0.00040153851 0)
(4.3725197 0.00023169419 0)
(3.2393064 0.0001254022 0)
(2.2867703 6.1391212e-05 0)
(1.4872632 2.5100193e-05 0)
(0.81707558 7.0680529e-06 0)
(0.2559742 4.6912532e-07 0)
(29.027243 -0.0088605819 0)
(29.168544 -0.023558413 0)
(29.625322 -0.03278493 0)
(30.462109 -0.024647375 0)
(31.718989 -0.0073108853 0)
(33.326298 0.011488959 0)
(35.061855 0.026767022 0)
(36.719249 0.035947522 0)
(38.040818 0.039245529 0)
(38.890101 0.037613264 0)
(39.169293 0.034262434 0)
(38.512184 0.030109644 0)
(36.843471 0.025754364 0)
(34.421298 0.020898752 0)
(31.310029 0.016117422 0)
(27.709298 0.011825668 0)
(23.973911 0.0084067888 0)
(20.34881 0.0058017138 0)
(16.991066 0.0039075573 0)
(14.000329 0.0025804814 0)
(11.406824 0.0016759489 0)
(9.1888141 0.0010681489 0)
(7.3051549 0.00066476431 0)
(5.7117503 0.00040084377 0)
(4.3674327 0.00023133987 0)
(3.2355522 0.00012525675 0)
(2.2841284 6.1346339e-05 0)
(1.4855493 2.508683e-05 0)
(0.816136 7.0590252e-06 0)
(0.25568046 4.6529314e-07 0)
(29.014948 -0.0088523283 0)
(29.155828 -0.023491188 0)
(29.610876 -0.032787285 0)
(30.444165 -0.024748443 0)
(31.697255 -0.0074508195 0)
(33.301745 0.011323707 0)
(35.036102 0.026657804 0)
(36.693513 0.035838268 0)
(38.016001 0.03916899 0)
(38.865964 0.037544154 0)
(39.145248 0.034206751 0)
(38.487713 0.030060878 0)
(36.818344 0.025711439 0)
(34.394723 0.020860192 0)
(31.281844 0.016083781 0)
(27.681278 0.011798704 0)
(23.947662 0.0083864569 0)
(20.325316 0.0057870727 0)
(16.9709 0.0038974133 0)
(13.983609 0.0025737413 0)
(11.393251 0.0016715639 0)
(9.1779508 0.0010653705 0)
(7.296574 0.00066304264 0)
(5.7050783 0.00039980593 0)
(4.3623545 0.00023074171 0)
(3.2318042 0.00012492052 0)
(2.2814906 6.1171705e-05 0)
(1.483838 2.5016857e-05 0)
(0.8151978 7.0472069e-06 0)
(0.25538713 4.6827888e-07 0)
(29.002687 -0.0088430761 0)
(29.143147 -0.023422771 0)
(29.596442 -0.032786692 0)
(30.426216 -0.024847397 0)
(31.675513 -0.007589473 0)
(33.277169 0.011159287 0)
(35.010325 0.026548113 0)
(36.667755 0.035728495 0)
(37.991169 0.039091798 0)
(38.841816 0.037474547 0)
(39.121197 0.034150642 0)
(38.463243 0.030012195 0)
(36.793222 0.025667926 0)
(34.368159 0.020820914 0)
(31.253683 0.01605093 0)
(27.653294 0.011773126 0)
(23.921455 0.0083672171 0)
(20.301869 0.0057734218 0)
(16.950777 0.0038882726 0)
(13.966928 0.0025678828 0)
(11.379711 0.0016678557 0)
(9.167114 0.0010630433 0)
(7.2880141 0.00066161682 0)
(5.6984228 0.00039895458 0)
(4.3572889 0.00023025433 0)
(3.2280656 0.0001246827 0)
(2.2788594 6.1071583e-05 0)
(1.482131 2.4973477e-05 0)
(0.81426196 7.0227224e-06 0)
(0.25509455 4.5946999e-07 0)
(28.990461 -0.0088329272 0)
(29.130499 -0.023353454 0)
(29.582018 -0.032783102 0)
(30.408262 -0.024943592 0)
(31.653761 -0.0077267537 0)
(33.252568 0.010995118 0)
(34.984524 0.026438017 0)
(36.641974 0.035618734 0)
(37.966319 0.039014304 0)
(38.817657 0.037404659 0)
(39.097141 0.034093924 0)
(38.438774 0.029962877 0)
(36.768104 0.025623628 0)
(34.341603 0.020780875 0)
(31.225542 0.016017668 0)
(27.625341 0.011747444 0)
(23.895286 0.0083478257 0)
(20.278461 0.005759473 0)
(16.930693 0.003878738 0)
(13.950279 0.0025615925 0)
(11.366195 0.0016637617 0)
(9.1562966 0.0010604094 0)
(7.2794691 0.00065994888 0)
(5.6917786 0.00039791775 0)
(4.3522317 0.0002296259 0)
(3.224333 0.00012429332 0)
(2.2762324 6.0852095e-05 0)
(1.4804268 2.4882235e-05 0)
(0.81332761 7.0079057e-06 0)
(0.25480243 4.6387191e-07 0)
(28.978271 -0.0088217796 0)
(29.117885 -0.023282622 0)
(29.567602 -0.032776728 0)
(30.390302 -0.025038686 0)
(31.632 -0.007862735 0)
(33.227943 0.010832635 0)
(34.958698 0.026327874 0)
(36.616169 0.035508775 0)
(37.941451 0.038936249 0)
(38.793486 0.037334784 0)
(39.073078 0.034037117 0)
(38.414305 0.029913683 0)
(36.742989 0.025580633 0)
(34.315057 0.020742484 0)
(31.197422 0.01598457 0)
(27.597421 0.011721423 0)
(23.869156 0.0083285641 0)
(20.255096 0.005745887 0)
(16.910649 0.003869544 0)
(13.933665 0.0025556354 0)
(11.352709 0.0016600477 0)
(9.145502 0.0010581577 0)
(7.2709419 0.00065863781 0)
(5.6851481 0.00039720192 0)
(4.3471849 0.00022926515 0)
(3.2206082 0.00012415517 0)
(2.2736109 6.0820123e-05 0)
(1.478726 2.4876668e-05 0)
(0.81239514 7.000832e-06 0)
(0.25451089 4.5991957e-07 0)
(28.966117 -0.0088094531 0)
(29.105306 -0.023209984 0)
(29.553196 -0.032767746 0)
(30.372336 -0.025132697 0)
(31.610229 -0.007997744 0)
(33.203294 0.010670572 0)
(34.932847 0.026217325 0)
(36.590341 0.035398896 0)
(37.916566 0.03885764 0)
(38.769303 0.037264809 0)
(39.049009 0.033980151 0)
(38.389837 0.029864586 0)
(36.717879 0.025537689 0)
(34.288522 0.020704068 0)
(31.169325 0.01595132 0)
(27.569535 0.011694899 0)
(23.843068 0.008308543 0)
(20.231775 0.0057315262 0)
(16.890647 0.0038596191 0)
(13.917087 0.0025490227 0)
(11.339251 0.0016557352 0)
(9.1347294 0.0010554149 0)
(7.2624312 0.00065691896 0)
(5.6785296 0.00039614874 0)
(4.3421468 0.00022863839 0)
(3.2168893 0.00012377474 0)
(2.2709933 6.060719e-05 0)
(1.4770276 2.4786418e-05 0)
(0.81146398 6.9837394e-06 0)
(0.25421975 4.6291229e-07 0)
(28.954 -0.008795932 0)
(29.092762 -0.023136117 0)
(29.538801 -0.03275625 0)
(30.354365 -0.025225667 0)
(31.58845 -0.0081318393 0)
(33.178621 0.010510191 0)
(34.90697 0.026106713 0)
(36.564489 0.035289355 0)
(37.891662 0.038778927 0)
(38.745107 0.037194899 0)
(39.024934 0.03392322 0)
(38.365369 0.029815807 0)
(36.692773 0.025494225 0)
(34.261997 0.0206649 0)
(31.141251 0.015918938 0)
(27.541684 0.011670161 0)
(23.817021 0.0082900588 0)
(20.208499 0.0057184544 0)
(16.870689 0.0038509452 0)
(13.900547 0.0025435241 0)
(11.325824 0.0016523334 0)
(9.1239818 0.0010533614 0)
(7.2539399 0.00065572478 0)
(5.6719262 0.00039548997 0)
(4.33712 0.00022830886 0)
(3.2131787 0.00012366268 0)
(2.2683815 6.0591534e-05 0)
(1.4753331 2.4785317e-05 0)
(0.8105349 6.9709742e-06 0)
(0.25392926 4.5474326e-07 0)
(28.94192 -0.0087813863 0)
(29.080254 -0.023061737 0)
(29.524416 -0.032742461 0)
(30.336389 -0.025316584 0)
(31.56666 -0.0082642548 0)
(33.153922 0.010351252 0)
(34.881068 0.025995686 0)
(36.538612 0.035180281 0)
(37.866739 0.038700193 0)
(38.720898 0.037125067 0)
(39.000852 0.033866139 0)
(38.340901 0.02976682 0)
(36.667672 0.02545045 0)
(34.235481 0.02062549 0)
(31.113198 0.015885882 0)
(27.513865 0.011644267 0)
(23.791013 0.008270463 0)
(20.185263 0.0057042773 0)
(16.850768 0.0038412093 0)
(13.884039 0.0025370836 0)
(11.312423 0.0016481171 0)
(9.1132535 0.0010506333 0)
(7.2454635 0.00065397955 0)
(5.6653338 0.000394386 0)
(4.3321013 0.00022762628 0)
(3.209474 0.00012322627 0)
(2.2657737 6.0334629e-05 0)
(1.4736411 2.4673218e-05 0)
(0.80960718 6.9503176e-06 0)
(0.2536392 4.5898557e-07 0)
(28.929878 -0.0087659383 0)
(29.067781 -0.022986864 0)
(29.510039 -0.0327263 0)
(30.318407 -0.025405579 0)
(31.544862 -0.0083953267 0)
(33.1292 0.010193594 0)
(34.855141 0.02588444 0)
(36.512709 0.035071587 0)
(37.841797 0.038621 0)
(38.696675 0.03705513 0)
(38.976762 0.033808983 0)
(38.316433 0.029718161 0)
(36.642574 0.025408238 0)
(34.208976 0.020587788 0)
(31.085167 0.015852955 0)
(27.48608 0.011617878 0)
(23.765045 0.0082506843 0)
(20.162071 0.0056902501 0)
(16.830891 0.0038316633 0)
(13.867569 0.0025308887 0)
(11.299053 0.0016442361 0)
(9.1025503 0.0010482675 0)
(7.2370067 0.0006526045 0)
(5.6587566 0.0003936328 0)
(4.327094 0.00022724978 0)
(3.2057776 0.00012309346 0)
(2.2631719 6.0313179e-05 0)
(1.4719529 2.4673599e-05 0)
(0.80868155 6.9443743e-06 0)
(0.25334977 4.5485178e-07 0)
(28.917874 -0.0087495014 0)
(29.055343 -0.022910847 0)
(29.495669 -0.032708174 0)
(30.300419 -0.025494447 0)
(31.523054 -0.0085251872 0)
(33.104452 0.010038006 0)
(34.829187 0.025772782 0)
(36.486782 0.03496319 0)
(37.816834 0.038541189 0)
(38.672439 0.036984896 0)
(38.952665 0.033751388 0)
(38.291965 0.029669189 0)
(36.617481 0.025365472 0)
(34.18248 0.020549424 0)
(31.057158 0.015820118 0)
(27.458328 0.011592001 0)
(23.739119 0.0082310054 0)
(20.138924 0.0056760124 0)
(16.811056 0.0038217087 0)
(13.851135 0.0025241753 0)
(11.285712 0.0016398113 0)
(9.0918703 0.001045409 0)
(7.2285675 0.00065078096 0)
(5.6521926 0.00039249066 0)
(4.3220963 0.0002265501 0)
(3.202088 0.00012265782 0)
(2.2605745 6.0065718e-05 0)
(1.4702675 2.4567432e-05 0)
(0.80775743 6.9231747e-06 0)
(0.25306082 4.5763615e-07 0)
(28.905909 -0.0087319921 0)
(29.042941 -0.022833573 0)
(29.481309 -0.032688102 0)
(30.282426 -0.025583097 0)
(31.501238 -0.0086545725 0)
(33.079681 0.009883026 0)
(34.803209 0.025660101 0)
(36.460829 0.034855186 0)
(37.791851 0.038461341 0)
(38.648187 0.0369151 0)
(38.928559 0.033694274 0)
(38.267496 0.029620936 0)
(36.592391 0.02532282 0)
(34.155994 0.020511173 0)
(31.02917 0.015788495 0)
(27.43061 0.011567916 0)
(23.713234 0.0082131136 0)
(20.11582 0.0056633352 0)
(16.791264 0.0038132614 0)
(13.834739 0.002518768 0)
(11.272403 0.0016364514 0)
(9.0812157 0.0010433891 0)
(7.2201486 0.00064963076 0)
(5.6456445 0.00039189336 0)
(4.3171109 0.00022628001 0)
(3.1984075 0.00012260154 0)
(2.2579836 6.0096294e-05 0)
(1.4685864 2.4593006e-05 0)
(0.80683561 6.917125e-06 0)
(0.25277258 4.4923765e-07 0)
(28.893983 -0.0087136067 0)
(29.030576 -0.022755897 0)
(29.466959 -0.03266627 0)
(30.264429 -0.025671428 0)
(31.479415 -0.0087830022 0)
(33.054887 0.0097303979 0)
(34.777205 0.025546952 0)
(36.43485 0.034747713 0)
(37.766847 0.03838153 0)
(38.623921 0.036845742 0)
(38.904445 0.033637539 0)
(38.243027 0.02957306 0)
(36.567305 0.02528047 0)
(34.129517 0.020473184 0)
(31.001204 0.015756193 0)
(27.402924 0.011542139 0)
(23.687385 0.0081935311 0)
(20.092757 0.0056491119 0)
(16.771509 0.0038034409 0)
(13.818375 0.0025121933 0)
(11.25912 0.0016320782 0)
(9.0705814 0.0010405136 0)
(7.2117455 0.00064774492 0)
(5.6391083 0.00039066475 0)
(4.3121345 0.00022549293 0)
(3.1947335 0.00012207356 0)
(2.2553973 5.9773455e-05 0)
(1.4669081 2.4447241e-05 0)
(0.80591536 6.8875832e-06 0)
(0.25248483 4.5346151e-07 0)
(28.882095 -0.008694692 0)
(29.018248 -0.022678544 0)
(29.452617 -0.032642723 0)
(30.246428 -0.025758351 0)
(31.457583 -0.0089099581 0)
(33.030069 0.0095796214 0)
(34.751176 0.025433406 0)
(36.408845 0.034641063 0)
(37.741822 0.038301555 0)
(38.59964 0.036776681 0)
(38.880323 0.033581155 0)
(38.218557 0.029525767 0)
(36.542223 0.025239658 0)
(34.103051 0.020436683 0)
(30.97326 0.015724411 0)
(27.375271 0.011516706 0)
(23.661578 0.0081743705 0)
(20.069737 0.0056355441 0)
(16.751797 0.003794258 0)
(13.802048 0.002506284 0)
(11.245868 0.0016284014 0)
(9.059972 0.0010382849 0)
(7.2033619 0.00064646009 0)
(5.6325874 0.00038997721 0)
(4.3071697 0.00022517119 0)
(3.1910682 0.00012199101 0)
(2.2528171 5.9786931e-05 0)
(1.4652339 2.4462756e-05 0)
(0.80499733 6.884667e-06 0)
(0.25219778 4.4905746e-07 0)
(28.870247 -0.0086754549 0)
(29.005955 -0.022601362 0)
(29.438283 -0.032617524 0)
(30.228422 -0.025844521 0)
(31.435745 -0.0090356549 0)
(33.005228 0.0094308722 0)
(34.725123 0.025319318 0)
(36.382814 0.034534946 0)
(37.716776 0.038221384 0)
(38.575342 0.036707791 0)
(38.85619 0.033524846 0)
(38.194086 0.029478492 0)
(36.517143 0.025198507 0)
(34.076592 0.020399742 0)
(30.945335 0.015693135 0)
(27.34765 0.011492423 0)
(23.635809 0.0081559414 0)
(20.046758 0.0056222086 0)
(16.732125 0.0037849173 0)
(13.785755 0.0025000071 0)
(11.232642 0.0016242624 0)
(9.0493828 0.0010355903 0)
(7.1949935 0.00064471818 0)
(5.6260776 0.00038885433 0)
(4.3022128 0.000224459 0)
(3.1874083 0.00012151683 0)
(2.2502405 5.9497987e-05 0)
(1.4635619 2.4332819e-05 0)
(0.8040805 6.8576901e-06 0)
(0.2519111 4.5234971e-07 0)
(28.858438 -0.0086558633 0)
(28.993698 -0.022523713 0)
(29.423955 -0.032591101 0)
(30.210411 -0.025931586 0)
(31.4139 -0.0091603229 0)
(32.980365 0.009284347 0)
(34.699045 0.025204319 0)