# Solver information
# Time          	U_solver        	Ux_initial      	Ux_final        	Ux_iters        	Uy_initial      	Uy_final        	Uy_iters        	U_converged     	k_solver        	k_initial       	k_final         	k_iters         	k_converged     	p_solver        	p_initial       	p_final         	p_iters         	p_converged     	omega_solver    	omega_initial   	omega_final     	omega_iters     	omega_converged 
5001            	DILUPBiCGStab	4.30983490e-05	1.99218310e-07	1	1.25231490e-03	9.83689170e-06	1	false	DILUPBiCGStab	1.28058190e-04	1.73498290e-06	1	true	GAMG	2.51517160e-02	2.28946140e-04	3	true	DILUPBiCGStab	2.16292050e-06	4.70638730e-11	1	true
5002            	DILUPBiCGStab	4.30040220e-05	1.99845680e-07	1	8.25717280e-04	5.45425470e-06	1	false	DILUPBiCGStab	1.27842910e-04	1.73219980e-06	1	true	GAMG	1.77941950e-02	1.30797010e-04	5	true	DILUPBiCGStab	2.16276970e-06	4.70506860e-11	1	true
5003            	DILUPBiCGStab	4.28193240e-05	1.99339820e-07	1	6.86984610e-04	4.48574760e-06	1	false	DILUPBiCGStab	1.27724380e-04	1.73071450e-06	1	true	GAMG	1.12473320e-02	9.76480850e-05	5	true	DILUPBiCGStab	2.16258830e-06	4.70582130e-11	1	true
5004            	DILUPBiCGStab	4.52789560e-05	2.61039080e-07	1	9.67928380e-04	6.00243800e-06	1	false	DILUPBiCGStab	1.27411230e-04	1.72663290e-06	1	true	GAMG	8.07113190e-03	6.31708730e-05	7	true	DILUPBiCGStab	2.16221580e-06	4.70764390e-11	1	true
5005            	DILUPBiCGStab	4.45772720e-05	2.24103750e-07	1	8.16600420e-04	4.69626730e-06	1	false	DILUPBiCGStab	1.27819830e-04	1.73236750e-06	1	true	GAMG	5.79742660e-03	4.66130000e-05	7	true	DILUPBiCGStab	2.16302410e-06	4.70955230e-11	1	true
5006            	DILUPBiCGStab	4.34701380e-05	2.05653720e-07	1	6.75567230e-04	3.61000730e-06	1	false	DILUPBiCGStab	1.28078630e-04	1.73610320e-06	1	true	GAMG	4.14505790e-03	3.35958900e-05	7	true	DILUPBiCGStab	2.16350580e-06	4.71016320e-11	1	true
5007            	DILUPBiCGStab	4.31218170e-05	2.01131290e-07	1	5.73652620e-04	3.69817050e-06	1	false	DILUPBiCGStab	1.27988360e-04	1.73508750e-06	1	true	GAMG	3.43863140e-03	2.93589380e-05	9	true	DILUPBiCGStab	2.16345520e-06	4.71282310e-11	1	true
5008            	DILUPBiCGStab	4.30669450e-05	1.99931750e-07	1	5.15169560e-04	3.11312750e-06	1	false	DILUPBiCGStab	1.28049820e-04	1.73612850e-06	1	true	GAMG	2.80591620e-03	1.69828170e-05	9	true	DILUPBiCGStab	2.16367890e-06	4.71072850e-11	1	true
5009            	DILUPBiCGStab	4.30260020e-05	2.00739360e-07	1	5.27206130e-04	2.93435680e-06	1	false	DILUPBiCGStab	1.28028760e-04	1.73596270e-06	1	true	GAMG	2.31910590e-03	2.18173780e-05	8	true	DILUPBiCGStab	2.16391490e-06	4.71260560e-11	1	true
5010            	DILUPBiCGStab	4.31398230e-05	2.01295760e-07	1	5.08715440e-04	2.82148070e-06	1	false	DILUPBiCGStab	1.27974580e-04	1.73535630e-06	1	true	GAMG	2.09003450e-03	2.07905340e-05	8	true	DILUPBiCGStab	2.16407310e-06	4.71247880e-11	1	true
5011            	DILUPBiCGStab	4.53158000e-05	2.48187380e-07	1	6.58404150e-04	3.79298710e-06	1	false	DILUPBiCGStab	1.27742010e-04	1.73229650e-06	1	true	GAMG	2.66084140e-03	1.57087740e-05	11	true	DILUPBiCGStab	2.16404320e-06	4.71205110e-11	1	true
5012            	DILUPBiCGStab	4.38332390e-05	2.02693070e-07	1	4.93163820e-04	2.63638820e-06	1	false	DILUPBiCGStab	1.27851380e-04	1.73388880e-06	1	true	GAMG	1.57975010e-03	1.20329260e-05	7	true	DILUPBiCGStab	2.16440670e-06	4.71464130e-11	1	true
5013            	DILUPBiCGStab	4.34928530e-05	2.01684830e-07	1	5.48748090e-04	3.28308190e-06	1	false	DILUPBiCGStab	1.27728970e-04	1.73233310e-06	1	true	GAMG	1.67485110e-03	9.99716990e-06	11	true	DILUPBiCGStab	2.16434840e-06	4.71493050e-11	1	true
5014            	DILUPBiCGStab	4.32398680e-05	2.00467420e-07	1	4.53561690e-04	3.15580570e-06	1	false	DILUPBiCGStab	1.27694230e-04	1.73199970e-06	1	true	GAMG	1.61614920e-03	1.44741330e-05	11	true	DILUPBiCGStab	2.16445210e-06	4.71536870e-11	1	true
5015            	DILUPBiCGStab	4.31324500e-05	2.00274450e-07	1	4.92965230e-04	3.50279660e-06	1	false	DILUPBiCGStab	1.27624650e-04	1.73114810e-06	1	true	GAMG	1.31342210e-03	1.02951580e-05	9	true	DILUPBiCGStab	2.16449160e-06	4.71553940e-11	1	true
5016            	DILUPBiCGStab	4.29764790e-05	2.01426340e-07	1	6.25053150e-04	4.11550760e-06	1	false	DILUPBiCGStab	1.27351740e-04	1.72757730e-06	1	true	GAMG	1.16766130e-03	1.00417370e-05	9	true	DILUPBiCGStab	2.16421250e-06	4.71570360e-11	1	true
5017            	DILUPBiCGStab	4.29965770e-05	2.00407950e-07	1	6.00955820e-04	3.88557920e-06	1	false	DILUPBiCGStab	1.27369970e-04	1.72782100e-06	1	true	GAMG	1.18304030e-03	1.12677740e-05	10	true	DILUPBiCGStab	2.16443040e-06	4.71710720e-11	1	true
5018            	DILUPBiCGStab	4.28978710e-05	1.99282070e-07	1	5.56395240e-04	4.01746480e-06	1	false	DILUPBiCGStab	1.27259580e-04	1.72629260e-06	1	true	GAMG	1.27993560e-03	1.27970960e-05	7	true	DILUPBiCGStab	2.16440050e-06	4.71696170e-11	1	true
5019            	DILUPBiCGStab	4.49258400e-05	2.66893180e-07	1	6.88803370e-04	4.28877410e-06	1	false	DILUPBiCGStab	1.27024210e-04	1.72308430e-06	1	true	GAMG	2.24620730e-03	1.55902200e-05	12	true	DILUPBiCGStab	2.16429450e-06	4.71707260e-11	1	true
5020            	DILUPBiCGStab	4.34080780e-05	2.04736470e-07	1	6.55518530e-04	3.46742240e-06	1	false	DILUPBiCGStab	1.27104500e-04	1.72413040e-06	1	true	GAMG	1.27513920e-03	1.12881230e-05	7	true	DILUPBiCGStab	2.16450340e-06	4.71851210e-11	1	true
5021            	DILUPBiCGStab	4.53223420e-05	2.60099800e-07	1	8.80187300e-04	4.52245890e-06	1	false	DILUPBiCGStab	1.26791120e-04	1.71981810e-06	1	true	GAMG	2.20603480e-03	1.99849250e-05	6	true	DILUPBiCGStab	2.16403570e-06	4.71927910e-11	1	true
5022            	DILUPBiCGStab	4.33965430e-05	2.02869110e-07	1	6.27353670e-04	3.48764930e-06	1	false	DILUPBiCGStab	1.27002820e-04	1.72267550e-06	1	true	GAMG	1.75778620e-03	7.71422900e-06	13	true	DILUPBiCGStab	2.16423120e-06	4.72086630e-11	1	true
5023            	DILUPBiCGStab	4.29496840e-05	1.99103370e-07	1	5.77402460e-04	3.59865240e-06	1	false	DILUPBiCGStab	1.26876460e-04	1.72097580e-06	1	true	GAMG	1.80225410e-03	1.44996400e-05	9	true	DILUPBiCGStab	2.16383760e-06	4.72095250e-11	1	true
5024            	DILUPBiCGStab	4.28509620e-05	2.00345920e-07	1	5.31852390e-04	3.02666020e-06	1	false	DILUPBiCGStab	1.26869050e-04	1.72091020e-06	1	true	GAMG	1.82224710e-03	1.29850590e-05	9	true	DILUPBiCGStab	2.16367950e-06	4.71999370e-11	1	true
5025            	DILUPBiCGStab	4.29546710e-05	2.01680080e-07	1	5.34886340e-04	3.10680260e-06	1	false	DILUPBiCGStab	1.26818040e-04	1.72025790e-06	1	true	GAMG	1.59656390e-03	1.06879110e-05	7	true	DILUPBiCGStab	2.16350940e-06	4.72014520e-11	1	true
5026            	DILUPBiCGStab	4.29598470e-05	2.03902590e-07	1	5.44517900e-04	3.28961930e-06	1	false	DILUPBiCGStab	1.26814090e-04	1.72022700e-06	1	true	GAMG	1.52164960e-03	1.10028470e-05	11	true	DILUPBiCGStab	2.16351890e-06	4.71942260e-11	1	true
5027            	DILUPBiCGStab	4.52919720e-05	2.63303040e-07	1	7.72993580e-04	4.24743230e-06	1	false	DILUPBiCGStab	1.26711290e-04	1.71884400e-06	1	true	GAMG	2.35694310e-03	2.05668770e-05	10	true	DILUPBiCGStab	2.16337590e-06	4.72216260e-11	1	true
5028            	DILUPBiCGStab	4.62734440e-05	2.63984950e-07	1	9.04916170e-04	5.02864410e-06	1	false	DILUPBiCGStab	1.26647720e-04	1.71801800e-06	1	true	GAMG	2.56350790e-03	2.26889490e-05	11	true	DILUPBiCGStab	2.16320220e-06	4.72224420e-11	1	true
5029            	DILUPBiCGStab	4.56191090e-05	2.35754170e-07	1	8.77269610e-04	4.14228310e-06	1	false	DILUPBiCGStab	1.26776060e-04	1.71977010e-06	1	true	GAMG	2.51219170e-03	2.16679280e-05	7	true	DILUPBiCGStab	2.16320010e-06	4.72518720e-11	1	true
5030            	DILUPBiCGStab	4.55076190e-05	2.55951550e-07	1	1.01559880e-03	4.76651510e-06	1	false	DILUPBiCGStab	1.26668480e-04	1.71838100e-06	1	true	GAMG	2.39744130e-03	1.49841230e-05	13	true	DILUPBiCGStab	2.16253230e-06	4.72601250e-11	1	true
5031            	DILUPBiCGStab	4.38025340e-05	2.09713840e-07	1	7.43696790e-04	3.73228660e-06	1	false	DILUPBiCGStab	1.26850340e-04	1.72095110e-06	1	true	GAMG	2.60783970e-03	2.58340810e-05	12	true	DILUPBiCGStab	2.16213840e-06	4.72770160e-11	1	true
5032            	DILUPBiCGStab	4.40980160e-05	2.23466480e-07	1	6.26058670e-04	3.23460310e-06	1	false	DILUPBiCGStab	1.27007540e-04	1.72315280e-06	1	true	GAMG	2.78844250e-03	2.54505970e-05	8	true	DILUPBiCGStab	2.16181760e-06	4.72924180e-11	1	true
5033            	DILUPBiCGStab	4.42311690e-05	2.22197970e-07	1	6.95954570e-04	3.61239950e-06	1	false	DILUPBiCGStab	1.26914720e-04	1.72198670e-06	1	true	GAMG	3.01627780e-03	2.46569530e-05	6	true	DILUPBiCGStab	2.16116530e-06	4.73167590e-11	1	true
5034            	DILUPBiCGStab	4.34725050e-05	2.18332110e-07	1	6.88649960e-04	3.11507990e-06	1	false	DILUPBiCGStab	1.26993140e-04	1.72311330e-06	1	true	GAMG	2.40420390e-03	1.66063820e-05	9	true	DILUPBiCGStab	2.16129690e-06	4.73003730e-11	1	true
5035            	DILUPBiCGStab	4.30944960e-05	2.00630590e-07	1	6.29018910e-04	3.12757240e-06	1	false	DILUPBiCGStab	1.27189430e-04	1.72580710e-06	1	true	GAMG	2.44486310e-03	1.30489550e-05	9	true	DILUPBiCGStab	2.16194970e-06	4.73138980e-11	1	true
5036            	DILUPBiCGStab	4.41799690e-05	2.28293430e-07	1	7.02558840e-04	3.97481910e-06	1	false	DILUPBiCGStab	1.26737970e-04	1.71971380e-06	1	true	GAMG	3.01481920e-03	1.63410950e-05	8	true	DILUPBiCGStab	2.16161460e-06	4.72983360e-11	1	true
5037            	DILUPBiCGStab	4.33555810e-05	2.04652610e-07	1	7.33355140e-04	4.19302760e-06	1	false	DILUPBiCGStab	1.26911680e-04	1.72209480e-06	1	true	GAMG	2.17557490e-03	2.00363610e-05	8	true	DILUPBiCGStab	2.16228860e-06	4.72768860e-11	1	true
5038            	DILUPBiCGStab	4.31533660e-05	2.02057870e-07	1	7.23102500e-04	3.94452940e-06	1	false	DILUPBiCGStab	1.26936950e-04	1.72242540e-06	1	true	GAMG	2.24036250e-03	1.32173310e-05	9	true	DILUPBiCGStab	2.16279570e-06	4.73114030e-11	1	true
5039            	DILUPBiCGStab	4.30174460e-05	2.04984160e-07	1	7.04238410e-04	4.85462260e-06	1	false	DILUPBiCGStab	1.26768080e-04	1.72014560e-06	1	true	GAMG	2.04414040e-03	1.61486220e-05	9	true	DILUPBiCGStab	2.16290780e-06	4.73069130e-11	1	true
5040            	DILUPBiCGStab	4.32453160e-05	2.03541250e-07	1	6.42354560e-04	3.94580290e-06	1	false	DILUPBiCGStab	1.27092760e-04	1.72452820e-06	1	true	GAMG	1.75752880e-03	1.53997010e-05	8	true	DILUPBiCGStab	2.16384060e-06	4.73341650e-11	1	true
5041            	DILUPBiCGStab	4.56961300e-05	2.56797560e-07	1	8.72549720e-04	4.56673710e-06	1	false	DILUPBiCGStab	1.26942170e-04	1.72248690e-06	1	true	GAMG	2.62734830e-03	2.10176940e-05	9	true	DILUPBiCGStab	2.16393830e-06	4.73339750e-11	1	true
5042            	DILUPBiCGStab	4.35700460e-05	2.07571320e-07	1	6.43745630e-04	3.50275350e-06	1	false	DILUPBiCGStab	1.27093820e-04	1.72455040e-06	1	true	GAMG	1.92970070e-03	1.85096140e-05	7	true	DILUPBiCGStab	2.16444720e-06	4.73382530e-11	1	true
5043            	DILUPBiCGStab	4.35061310e-05	2.12567940e-07	1	5.61315680e-04	3.15394180e-06	1	false	DILUPBiCGStab	1.27014410e-04	1.72348920e-06	1	true	GAMG	2.32193200e-03	1.99725550e-05	9	true	DILUPBiCGStab	2.16454090e-06	4.73405870e-11	1	true
5044            	DILUPBiCGStab	4.34452660e-05	2.02002490e-07	1	5.38024010e-04	2.96590000e-06	1	false	DILUPBiCGStab	1.27159600e-04	1.72545670e-06	1	true	GAMG	2.01885140e-03	1.96004800e-05	8	true	DILUPBiCGStab	2.16493120e-06	4.73438300e-11	1	true
5045            	DILUPBiCGStab	4.46524260e-05	2.21699960e-07	1	6.66752720e-04	3.64490090e-06	1	false	DILUPBiCGStab	1.26966950e-04	1.72287610e-06	1	true	GAMG	2.41467630e-03	1.61541590e-05	7	true	DILUPBiCGStab	2.16479140e-06	4.73412400e-11	1	true
5046            	DILUPBiCGStab	4.54312890e-05	2.60245140e-07	1	8.04920370e-04	4.37088660e-06	1	false	DILUPBiCGStab	1.26917820e-04	1.72230370e-06	1	true	GAMG	2.56403910e-03	1.62803640e-05	9	true	DILUPBiCGStab	2.16489920e-06	4.73452830e-11	1	true
5047            	DILUPBiCGStab	4.55730430e-05	2.81964180e-07	1	7.73321360e-04	4.64097340e-06	1	false	DILUPBiCGStab	1.26803500e-04	1.72089440e-06	1	true	GAMG	3.00084210e-03	1.63261090e-05	9	true	DILUPBiCGStab	2.16488290e-06	4.73555310e-11	1	true
5048            	DILUPBiCGStab	4.33436060e-05	2.07058580e-07	1	6.47647560e-04	4.59885800e-06	1	false	DILUPBiCGStab	1.26952390e-04	1.72309020e-06	1	true	GAMG	1.73936030e-03	1.22400960e-05	9	true	DILUPBiCGStab	2.16516020e-06	4.73636670e-11	1	true
5049            	DILUPBiCGStab	4.30816220e-05	2.00743640e-07	1	5.90865410e-04	3.41735430e-06	1	false	DILUPBiCGStab	1.26759530e-04	1.72068520e-06	1	true	GAMG	1.87676390e-03	1.39626250e-05	10	true	DILUPBiCGStab	2.16490320e-06	4.73552680e-11	1	true
5050            	DILUPBiCGStab	4.28575520e-05	2.01540830e-07	1	5.42141070e-04	3.21435760e-06	1	false	DILUPBiCGStab	1.26681640e-04	1.71985520e-06	1	true	GAMG	1.86896970e-03	1.30474230e-05	9	true	DILUPBiCGStab	2.16484580e-06	4.73498740e-11	1	true
5051            	DILUPBiCGStab	4.28307790e-05	2.01786260e-07	1	5.50846330e-04	3.13496730e-06	1	false	DILUPBiCGStab	1.26717350e-04	1.72060850e-06	1	true	GAMG	1.81931920e-03	1.39260890e-05	7	true	DILUPBiCGStab	2.16502190e-06	4.73520350e-11	1	true
5052            	DILUPBiCGStab	4.28427600e-05	2.03039400e-07	1	5.96178530e-04	3.17146310e-06	1	false	DILUPBiCGStab	1.26711390e-04	1.72078720e-06	1	true	GAMG	1.59183810e-03	1.47331530e-05	7	true	DILUPBiCGStab	2.16516040e-06	4.73406930e-11	1	true
5053            	DILUPBiCGStab	4.28025630e-05	2.03131120e-07	1	5.99274030e-04	3.25118680e-06	1	false	DILUPBiCGStab	1.26596530e-04	1.71943760e-06	1	true	GAMG	1.48737330e-03	1.13466050e-05	13	true	DILUPBiCGStab	2.16534050e-06	4.73420340e-11	1	true
5054            	DILUPBiCGStab	4.28979010e-05	2.04917250e-07	1	5.60908050e-04	3.92558860e-06	1	false	DILUPBiCGStab	1.26567150e-04	1.71925680e-06	1	true	GAMG	1.47322450e-03	1.31343040e-05	12	true	DILUPBiCGStab	2.16558090e-06	4.73346570e-11	1	true
5055            	DILUPBiCGStab	4.31898630e-05	2.08806030e-07	1	4.87884710e-04	3.02916730e-06	1	false	DILUPBiCGStab	1.26681910e-04	1.72099140e-06	1	true	GAMG	1.64833610e-03	1.23679410e-05	9	true	DILUPBiCGStab	2.16613350e-06	4.73323430e-11	1	true
5056            	DILUPBiCGStab	4.33574740e-05	2.05891060e-07	1	5.04262820e-04	3.24429510e-06	1	false	DILUPBiCGStab	1.26604900e-04	1.72013680e-06	1	true	GAMG	1.52191000e-03	9.98304500e-06	9	true	DILUPBiCGStab	2.16640010e-06	4.73396500e-11	1	true
5057            	DILUPBiCGStab	4.54403500e-05	2.35936300e-07	1	6.70966720e-04	3.54817470e-06	1	false	DILUPBiCGStab	1.26427420e-04	1.71794490e-06	1	true	GAMG	2.24724940e-03	1.53573010e-05	9	true	DILUPBiCGStab	2.16644410e-06	4.73395290e-11	1	true
5058            	DILUPBiCGStab	4.36675540e-05	2.08081040e-07	1	5.57471550e-04	2.79340960e-06	1	false	DILUPBiCGStab	1.26641440e-04	1.72112590e-06	1	true	GAMG	1.52849730e-03	1.44541630e-05	9	true	DILUPBiCGStab	2.16700920e-06	4.73499810e-11	1	true
5059            	DILUPBiCGStab	4.35939270e-05	2.06598860e-07	1	5.15067060e-04	2.71261550e-06	1	false	DILUPBiCGStab	1.26592530e-04	1.72078660e-06	1	true	GAMG	2.11836350e-03	1.51264210e-05	9	true	DILUPBiCGStab	2.16705360e-06	4.73585810e-11	1	true
5060            	DILUPBiCGStab	4.34759380e-05	2.04249590e-07	1	4.62464170e-04	2.55747520e-06	1	false	DILUPBiCGStab	1.26557130e-04	1.72067810e-06	1	true	GAMG	2.04467670e-03	1.76266130e-05	9	true	DILUPBiCGStab	2.16702670e-06	4.73710160e-11	1	true
5061            	DILUPBiCGStab	4.33712410e-05	2.04654860e-07	1	4.65302310e-04	2.55270180e-06	1	false	DILUPBiCGStab	1.26565640e-04	1.72120510e-06	1	true	GAMG	1.71790720e-03	1.57291560e-05	7	true	DILUPBiCGStab	2.16701920e-06	4.73749440e-11	1	true
5062            	DILUPBiCGStab	4.31062630e-05	2.01523760e-07	1	4.96900560e-04	2.70511910e-06	1	false	DILUPBiCGStab	1.26450850e-04	1.72010150e-06	1	true	GAMG	1.43008670e-03	1.10917590e-05	8	true	DILUPBiCGStab	2.16683300e-06	4.73718000e-11	1	true
5063            	DILUPBiCGStab	4.30153280e-05	2.00483370e-07	1	5.39912520e-04	3.91898950e-06	1	false	DILUPBiCGStab	1.26283270e-04	1.71832250e-06	1	true	GAMG	1.38424600e-03	1.15283440e-05	7	true	DILUPBiCGStab	2.16653920e-06	4.73737950e-11	1	true
5064            	DILUPBiCGStab	4.29845290e-05	2.01944070e-07	1	5.69999200e-04	4.77323310e-06	1	false	DILUPBiCGStab	1.26117220e-04	1.71656880e-06	1	true	GAMG	1.53515150e-03	1.31145050e-05	7	true	DILUPBiCGStab	2.16622820e-06	4.73810440e-11	1	true
5065            	DILUPBiCGStab	4.48618100e-05	2.62003010e-07	1	8.28698000e-04	5.37518810e-06	1	false	DILUPBiCGStab	1.25568220e-04	1.70948570e-06	1	true	GAMG	2.43551990e-03	2.39145750e-05	9	true	DILUPBiCGStab	2.16536670e-06	4.73772450e-11	1	true
5066            	DILUPBiCGStab	4.33384340e-05	2.07220170e-07	1	7.29675990e-04	4.58840360e-06	1	false	DILUPBiCGStab	1.25887300e-04	1.71417860e-06	1	true	GAMG	1.29097200e-03	1.22894470e-05	7	true	DILUPBiCGStab	2.16583400e-06	4.74067650e-11	1	true
5067            	DILUPBiCGStab	4.52766660e-05	2.58282210e-07	1	8.83078430e-04	4.58581510e-06	1	false	DILUPBiCGStab	1.25621390e-04	1.71085430e-06	1	true	GAMG	2.42447880e-03	2.07206680e-05	7	true	DILUPBiCGStab	2.16532830e-06	4.74142300e-11	1	true
5068            	DILUPBiCGStab	4.44287920e-05	2.32869120e-07	1	7.95641860e-04	3.96969880e-06	1	false	DILUPBiCGStab	1.25611260e-04	1.71100430e-06	1	true	GAMG	2.46561890e-03	1.93587170e-05	7	true	DILUPBiCGStab	2.16525150e-06	4.74263350e-11	1	true
5069            	DILUPBiCGStab	4.33844240e-05	2.05970290e-07	1	6.94739480e-04	3.67672370e-06	1	false	DILUPBiCGStab	1.25649150e-04	1.71179890e-06	1	true	GAMG	2.14860450e-03	2.06137020e-05	9	true	DILUPBiCGStab	2.16523580e-06	4.74476350e-11	1	true
5070            	DILUPBiCGStab	4.31673250e-05	2.03506880e-07	1	5.49575640e-04	3.45482490e-06	1	false	DILUPBiCGStab	1.25720840e-04	1.71311820e-06	1	true	GAMG	2.09403030e-03	1.86540850e-05	11	true	DILUPBiCGStab	2.16540580e-06	4.74584140e-11	1	true
5071            	DILUPBiCGStab	4.29839400e-05	2.01479410e-07	1	5.16638030e-04	2.82696320e-06	1	false	DILUPBiCGStab	1.25653190e-04	1.71252450e-06	1	true	GAMG	1.86007470e-03	1.12139640e-05	9	true	DILUPBiCGStab	2.16540870e-06	4.74324490e-11	1	true
5072            	DILUPBiCGStab	4.28577780e-05	2.00443170e-07	1	5.60586840e-04	3.05531760e-06	1	false	DILUPBiCGStab	1.25513100e-04	1.71093990e-06	1	true	GAMG	1.67908740e-03	1.60418610e-05	7	true	DILUPBiCGStab	2.16546420e-06	4.74307880e-11	1	true
5073            	DILUPBiCGStab	4.27966400e-05	2.01262920e-07	1	6.32131720e-04	4.29036630e-06	1	false	DILUPBiCGStab	1.25126890e-04	1.70602100e-06	1	true	GAMG	1.70674930e-03	1.22457100e-05	7	true	DILUPBiCGStab	2.16513230e-06	4.74283740e-11	1	true
5074            	DILUPBiCGStab	4.29447120e-05	2.05716990e-07	1	6.33884900e-04	4.95284620e-06	1	false	DILUPBiCGStab	1.25033560e-04	1.70505200e-06	1	true	GAMG	1.86883580e-03	1.82875690e-05	7	true	DILUPBiCGStab	2.16526080e-06	4.74301610e-11	1	true
5075            	DILUPBiCGStab	4.30461210e-05	2.06234720e-07	1	5.78226190e-04	3.62991880e-06	1	false	DILUPBiCGStab	1.25178370e-04	1.70728880e-06	1	true	GAMG	1.82016090e-03	1.41991230e-05	8	true	DILUPBiCGStab	2.16572640e-06	4.74319050e-11	1	true
5076            	DILUPBiCGStab	4.30313140e-05	2.03904640e-07	1	5.49818620e-04	3.20364810e-06	1	false	DILUPBiCGStab	1.25293270e-04	1.70908600e-06	1	true	GAMG	1.36932980e-03	7.03033560e-06	8	true	DILUPBiCGStab	2.16609040e-06	4.74447250e-11	1	true
5077            	DILUPBiCGStab	4.29016690e-05	2.03195240e-07	1	5.08158000e-04	3.13975920e-06	1	false	DILUPBiCGStab	1.25216970e-04	1.70827350e-06	1	true	GAMG	1.42053790e-03	6.32163590e-06	9	true	DILUPBiCGStab	2.16608040e-06	4.74521290e-11	1	true
5078            	DILUPBiCGStab	4.51985180e-05	2.59053720e-07	1	7.40937170e-04	3.82424240e-06	1	false	DILUPBiCGStab	1.25042160e-04	1.70606530e-06	1	true	GAMG	2.39204800e-03	1.88105720e-05	9	true	DILUPBiCGStab	2.16590850e-06	4.74592350e-11	1	true
5079            	DILUPBiCGStab	4.57456380e-05	2.65207160e-07	1	8.21547970e-04	4.23280890e-06	1	false	DILUPBiCGStab	1.24982320e-04	1.70543860e-06	1	true	GAMG	2.66350600e-03	1.92856300e-05	10	true	DILUPBiCGStab	2.16584350e-06	4.74764050e-11	1	true
5080            	DILUPBiCGStab	4.35925360e-05	2.11381440e-07	1	6.64108640e-04	3.18956560e-06	1	false	DILUPBiCGStab	1.25182930e-04	1.70835330e-06	1	true	GAMG	2.25919810e-03	2.21843120e-05	7	true	DILUPBiCGStab	2.16606710e-06	4.75010260e-11	1	true
5081            	DILUPBiCGStab	4.38574890e-05	2.11760700e-07	1	5.73310490e-04	3.02388710e-06	1	false	DILUPBiCGStab	1.25194470e-04	1.70875660e-06	1	true	GAMG	2.69466230e-03	1.94230570e-05	9	true	DILUPBiCGStab	2.16590100e-06	4.75143970e-11	1	true
5082            	DILUPBiCGStab	4.30860910e-05	2.02812300e-07	1	5.06532270e-04	2.85896120e-06	1	false	DILUPBiCGStab	1.25225670e-04	1.70948910e-06	1	true	GAMG	2.03138570e-03	1.78611950e-05	11	true	DILUPBiCGStab	2.16584180e-06	4.75156860e-11	1	true
5083            	DILUPBiCGStab	4.27956260e-05	2.01879260e-07	1	5.96584660e-04	3.72724470e-06	1	false	DILUPBiCGStab	1.24966370e-04	1.70625650e-06	1	true	GAMG	2.05574810e-03	1.94629930e-05	9	true	DILUPBiCGStab	2.16537390e-06	4.75084870e-11	1	true
5084            	DILUPBiCGStab	4.26610470e-05	2.00629150e-07	1	6.23206160e-04	4.16476170e-06	1	false	DILUPBiCGStab	1.24962970e-04	1.70657370e-06	1	true	GAMG	1.72094870e-03	1.59789980e-05	7	true	DILUPBiCGStab	2.16540280e-06	4.75098730e-11	1	true
5085            	DILUPBiCGStab	4.30727800e-05	2.04789880e-07	1	5.85496120e-04	3.52365220e-06	1	false	DILUPBiCGStab	1.25050220e-04	1.70807800e-06	1	true	GAMG	1.91426100e-03	1.63227900e-05	11	true	DILUPBiCGStab	2.16574790e-06	4.75049420e-11	1	true
5086            	DILUPBiCGStab	4.69603270e-05	2.77021270e-07	1	9.66633920e-04	5.28851080e-06	1	false	DILUPBiCGStab	1.24537750e-04	1.70140390e-06	1	true	GAMG	2.69657570e-03	2.49985150e-05	11	true	DILUPBiCGStab	2.16514420e-06	4.75024130e-11	1	true
5087            	DILUPBiCGStab	4.81252790e-05	2.81772550e-07	1	1.20165810e-03	5.93389340e-06	1	false	DILUPBiCGStab	1.24450290e-04	1.70051690e-06	1	true	GAMG	2.88443950e-03	2.54707770e-05	11	true	DILUPBiCGStab	2.16508150e-06	4.75244740e-11	1	true
5088            	DILUPBiCGStab	4.58468870e-05	2.35635240e-07	1	1.07549510e-03	5.32116100e-06	1	false	DILUPBiCGStab	1.24731510e-04	1.70455760e-06	1	true	GAMG	2.95443710e-03	2.91300490e-05	7	true	DILUPBiCGStab	2.16555150e-06	4.75498760e-11	1	true
5089            	DILUPBiCGStab	4.46277850e-05	2.41844110e-07	1	8.93860800e-04	3.74077060e-06	1	false	DILUPBiCGStab	1.24986490e-04	1.70821140e-06	1	true	GAMG	3.18874930e-03	3.07615290e-05	11	true	DILUPBiCGStab	2.16585650e-06	4.75721010e-11	1	true
5090            	DILUPBiCGStab	4.52335390e-05	2.48405120e-07	1	9.74927930e-04	4.47348100e-06	1	false	DILUPBiCGStab	1.24923870e-04	1.70756110e-06	1	true	GAMG	3.14284170e-03	2.80978500e-05	11	true	DILUPBiCGStab	2.16559240e-06	4.75739050e-11	1	true
5091            	DILUPBiCGStab	4.34085130e-05	2.16752920e-07	1	6.85726570e-04	3.19426610e-06	1	false	DILUPBiCGStab	1.24979410e-04	1.70852020e-06	1	true	GAMG	3.21972300e-03	1.44806380e-05	11	true	DILUPBiCGStab	2.16555570e-06	4.75870860e-11	1	true
5092            	DILUPBiCGStab	4.29815040e-05	2.04021970e-07	1	6.53551310e-04	2.96575160e-06	1	false	DILUPBiCGStab	1.25267900e-04	1.71272070e-06	1	true	GAMG	2.90526160e-03	1.78204360e-05	7	true	DILUPBiCGStab	2.16593740e-06	4.75943290e-11	1	true
5093            	DILUPBiCGStab	4.26065140e-05	2.00123970e-07	1	6.13820930e-04	3.20474790e-06	1	false	DILUPBiCGStab	1.25007580e-04	1.70944880e-06	1	true	GAMG	2.84845350e-03	1.93472410e-05	10	true	DILUPBiCGStab	2.16571390e-06	4.75876800e-11	1	true
5094            	DILUPBiCGStab	4.26689360e-05	2.01606290e-07	1	6.89938320e-04	3.77138780e-06	1	false	DILUPBiCGStab	1.24910990e-04	1.70842760e-06	1	true	GAMG	2.47909920e-03	1.95268220e-05	7	true	DILUPBiCGStab	2.16592790e-06	4.75700840e-11	1	true
5095            	DILUPBiCGStab	4.24454670e-05	2.01752720e-07	1	7.46216090e-04	4.32147350e-06	1	false	DILUPBiCGStab	1.24792840e-04	1.70708050e-06	1	true	GAMG	2.35268800e-03	1.94555470e-05	7	true	DILUPBiCGStab	2.16640570e-06	4.75648450e-11	1	true
5096            	DILUPBiCGStab	4.26950330e-05	2.03191830e-07	1	7.30502770e-04	4.29565770e-06	1	false	DILUPBiCGStab	1.24820410e-04	1.70764550e-06	1	true	GAMG	2.27381430e-03	1.52994860e-05	11	true	DILUPBiCGStab	2.16722270e-06	4.75696310e-11	1	true
5097            	DILUPBiCGStab	4.67780530e-05	3.40114830e-07	1	1.07137930e-03	6.71173110e-06	1	false	DILUPBiCGStab	1.24464000e-04	1.70292020e-06	1	true	GAMG	3.03603560e-03	2.27954860e-05	11	true	DILUPBiCGStab	2.16740570e-06	4.75658470e-11	1	true
5098            	DILUPBiCGStab	4.55517910e-05	2.36193350e-07	1	9.34269370e-04	4.60276620e-06	1	false	DILUPBiCGStab	1.24827440e-04	1.70801480e-06	1	true	GAMG	2.88428250e-03	2.70619020e-05	8	true	DILUPBiCGStab	2.16848770e-06	4.75865680e-11	1	true
5099            	DILUPBiCGStab	4.34327990e-05	2.10222880e-07	1	7.89419300e-04	3.59188930e-06	1	false	DILUPBiCGStab	1.25168990e-04	1.71282270e-06	1	true	GAMG	2.17603080e-03	1.39456820e-05	11	true	DILUPBiCGStab	2.16931380e-06	4.76121540e-11	1	true
5100            	DILUPBiCGStab	4.53921040e-05	2.62943440e-07	1	9.33596640e-04	4.62587580e-06	1	false	DILUPBiCGStab	1.24938090e-04	1.70985990e-06	1	true	GAMG	3.66050560e-03	2.25529720e-05	9	true	DILUPBiCGStab	2.16918070e-06	4.76067920e-11	1	true
5101            	DILUPBiCGStab	4.41264440e-05	2.27836770e-07	1	6.53674730e-04	3.37888480e-06	1	false	DILUPBiCGStab	1.25044440e-04	1.71150690e-06	1	true	GAMG	3.18251550e-03	1.52269520e-05	9	true	DILUPBiCGStab	2.16947490e-06	4.76063710e-11	1	true
5102            	DILUPBiCGStab	4.33663260e-05	2.26634220e-07	1	6.21850050e-04	3.18854170e-06	1	false	DILUPBiCGStab	1.25183200e-04	1.71361160e-06	1	true	GAMG	2.73297890e-03	2.05467210e-05	7	true	DILUPBiCGStab	2.16978910e-06	4.76273760e-11	1	true
5103            	DILUPBiCGStab	4.32243340e-05	2.04197800e-07	1	5.84436280e-04	2.98149390e-06	1	false	DILUPBiCGStab	1.25244750e-04	1.71465150e-06	1	true	GAMG	2.88557080e-03	2.49780910e-05	7	true	DILUPBiCGStab	2.17007710e-06	4.76255330e-11	1	true
5104            	DILUPBiCGStab	4.29428560e-05	2.05874380e-07	1	6.51875530e-04	3.21391290e-06	1	false	DILUPBiCGStab	1.25552480e-04	1.71904340e-06	1	true	GAMG	2.24344020e-03	2.00832500e-05	7	true	DILUPBiCGStab	2.17093760e-06	4.76295440e-11	1	true
5105            	DILUPBiCGStab	4.29198040e-05	2.04960220e-07	1	6.08845020e-04	3.00677080e-06	1	false	DILUPBiCGStab	1.25621550e-04	1.72017280e-06	1	true	GAMG	2.34094000e-03	2.09601390e-05	7	true	DILUPBiCGStab	2.17142210e-06	4.76420630e-11	1	true
5106            	DILUPBiCGStab	4.44453200e-05	2.39470890e-07	1	7.70773200e-04	3.81692900e-06	1	false	DILUPBiCGStab	1.25289990e-04	1.71580170e-06	1	true	GAMG	2.60914230e-03	1.91126020e-05	11	true	DILUPBiCGStab	2.17132790e-06	4.76523400e-11	1	true
5107            	DILUPBiCGStab	4.35263330e-05	2.14795690e-07	1	6.85728780e-04	4.59104620e-06	1	false	DILUPBiCGStab	1.25400690e-04	1.71748870e-06	1	true	GAMG	2.24116000e-03	1.93699570e-05	7	true	DILUPBiCGStab	2.17175450e-06	4.76605510e-11	1	true
5108            	DILUPBiCGStab	4.50512300e-05	2.47905230e-07	1	8.61062180e-04	4.51915620e-06	1	false	DILUPBiCGStab	1.25247580e-04	1.71548670e-06	1	true	GAMG	3.05402670e-03	2.73214280e-05	10	true	DILUPBiCGStab	2.17182800e-06	4.76753760e-11	1	true
5109            	DILUPBiCGStab	4.32092650e-05	2.09618510e-07	1	7.58354840e-04	5.12520530e-06	1	false	DILUPBiCGStab	1.25330570e-04	1.71679980e-06	1	true	GAMG	2.26782540e-03	1.52639470e-05	12	true	DILUPBiCGStab	2.17217870e-06	4.76757780e-11	1	true
5110            	DILUPBiCGStab	4.52228080e-05	2.51940280e-07	1	8.82248330e-04	4.48910980e-06	1	false	DILUPBiCGStab	1.25131370e-04	1.71412660e-06	1	true	GAMG	2.95318520e-03	2.69033560e-05	7	true	DILUPBiCGStab	2.17201820e-06	4.76808480e-11	1	true
5111            	DILUPBiCGStab	4.31352590e-05	2.08310880e-07	1	6.80204750e-04	3.63410210e-06	1	false	DILUPBiCGStab	1.25294820e-04	1.71644790e-06	1	true	GAMG	2.12742010e-03	1.99625520e-05	11	true	DILUPBiCGStab	2.17234600e-06	4.76838400e-11	1	true
5112            	DILUPBiCGStab	4.28564800e-05	2.04154190e-07	1	6.64933290e-04	4.05611540e-06	1	false	DILUPBiCGStab	1.25119460e-04	1.71413320e-06	1	true	GAMG	2.34359430e-03	1.61901960e-05	9	true	DILUPBiCGStab	2.17203890e-06	4.76699880e-11	1	true
5113            	DILUPBiCGStab	4.27185430e-05	2.03225500e-07	1	6.45247420e-04	3.67973390e-06	1	false	DILUPBiCGStab	1.25068600e-04	1.71348690e-06	1	true	GAMG	2.43046320e-03	1.78862730e-05	8	true	DILUPBiCGStab	2.17198530e-06	4.76651540e-11	1	true
5114            	DILUPBiCGStab	4.26868170e-05	2.05410690e-07	1	6.65598140e-04	3.97371360e-06	1	false	DILUPBiCGStab	1.25155230e-04	1.71470300e-06	1	true	GAMG	2.01760840e-03	1.23795940e-05	7	true	DILUPBiCGStab	2.17215250e-06	4.76616210e-11	1	true
5115            	DILUPBiCGStab	4.26540160e-05	2.04584320e-07	1	6.29997070e-04	3.40976600e-06	1	false	DILUPBiCGStab	1.25193220e-04	1.71519770e-06	1	true	GAMG	1.89213560e-03	1.05220640e-05	9	true	DILUPBiCGStab	2.17230290e-06	4.76627500e-11	1	true
5116            	DILUPBiCGStab	4.25529330e-05	2.03651320e-07	1	5.90901520e-04	4.53752820e-06	1	false	DILUPBiCGStab	1.25080320e-04	1.71358610e-06	1	true	GAMG	1.90272210e-03	1.51720930e-05	7	true	DILUPBiCGStab	2.17215520e-06	4.76623070e-11	1	true
5117            	DILUPBiCGStab	4.60172570e-05	3.13830390e-07	1	8.44566220e-04	5.05750750e-06	1	false	DILUPBiCGStab	1.24701380e-04	1.70828880e-06	1	true	GAMG	2.95798790e-03	2.19411400e-05	14	true	DILUPBiCGStab	2.17163690e-06	4.76594850e-11	1	true
5118            	DILUPBiCGStab	4.82387990e-05	2.90555520e-07	1	1.11943570e-03	5.69160510e-06	1	false	DILUPBiCGStab	1.24554070e-04	1.70620870e-06	1	true	GAMG	3.53877360e-03	3.08037510e-05	9	true	DILUPBiCGStab	2.17128090e-06	4.76944420e-11	1	true
5119            	DILUPBiCGStab	4.57797280e-05	2.45819020e-07	1	9.97566110e-04	4.35106230e-06	1	false	DILUPBiCGStab	1.24916910e-04	1.71115940e-06	1	true	GAMG	2.97917290e-03	2.20203730e-05	11	true	DILUPBiCGStab	2.17128920e-06	4.77197630e-11	1	true
5120            	DILUPBiCGStab	4.52554060e-05	2.58248760e-07	1	1.05566110e-03	4.86383760e-06	1	false	DILUPBiCGStab	1.24894950e-04	1.71097560e-06	1	true	GAMG	3.05048840e-03	2.87049160e-05	9	true	DILUPBiCGStab	2.17058890e-06	4.77317700e-11	1	true