/*--------------------------------*- C++ -*----------------------------------*\
| =========                 |                                                 |
| \\      /  F ield         | OpenFOAM: The Open Source CFD Toolbox           |
|  \\    /   O peration     | Version:  v2012                                 |
|   \\  /    A nd           | Website:  www.openfoam.com                      |
|    \\/     M anipulation  |                                                 |
\*---------------------------------------------------------------------------*/
FoamFile
{
    version     2.0;
    format      ascii;
    class       volScalarField;
    location    "900";
    object      alphat;
}
// * * * * * * * * * * * * * * * * * * * * * * * * * * * * * * * * * * * * * //

dimensions      [1 -1 -1 0 0 0 0];


internalField   nonuniform List<scalar> 
24000
(
0.00051067341
0.00027187248
0.00020704603
0.00020278144
0.00017824896
0.00014567786
0.00011236021
8.7731175e-05
7.5483963e-05
4.4181472e-05
2.4302138e-05
1.7459184e-05
1.4741647e-05
1.0957371e-05
6.6730305e-06
4.0582463e-06
2.3867308e-06
1.2305861e-06
5.0364748e-07
1.7754289e-07
5.5677481e-08
1.5903067e-08
4.1617681e-09
9.8493457e-10
2.0400943e-10
3.4908053e-11
4.5161829e-12
4.5632455e-13
1.4135409e-13
1.5067571e-13
0.00051302713
0.00027327248
0.00020689412
0.00020218231
0.00017796814
0.00014558237
0.00011232301
8.7678724e-05
7.5387354e-05
4.4118895e-05
2.4260531e-05
1.7422108e-05
1.4696779e-05
1.0924947e-05
6.6430939e-06
4.038152e-06
2.3734369e-06
1.222996e-06
5.001491e-07
1.7621471e-07
5.5243323e-08
1.5776408e-08
4.128311e-09
9.7699473e-10
2.0236547e-10
3.4626714e-11
4.4791239e-12
4.5173081e-13
1.3916431e-13
1.4824875e-13
0.00051546329
0.00027471479
0.00020736489
0.00020217772
0.00017772034
0.00014526385
0.00011199912
8.7333961e-05
7.5280137e-05
4.4043642e-05
2.4212016e-05
1.7381699e-05
1.4664592e-05
1.0897472e-05
6.6149423e-06
4.0196201e-06
2.3612909e-06
1.2143524e-06
4.9599592e-07
1.745957e-07
5.4708178e-08
1.5620082e-08
4.0871127e-09
9.6724104e-10
2.0034978e-10
3.4283598e-11
4.4359329e-12
4.4861291e-13
1.3930058e-13
1.4852323e-13
0.0005179188
0.00027617497
0.00020743378
0.00020199578
0.0001775025
0.00014505177
0.0001118075
8.71369e-05
7.5167853e-05
4.3965478e-05
2.4162835e-05
1.7341912e-05
1.4623618e-05
1.085995e-05
6.5863278e-06
4.0019723e-06
2.3503076e-06
1.2075271e-06
4.9292161e-07
1.7345031e-07
5.4339482e-08
1.5513792e-08
4.0592645e-09
9.6066398e-10
1.9899154e-10
3.4052058e-11
4.4063033e-12
4.4591011e-13
1.3871667e-13
1.4792939e-13
0.00052039123
0.00027764842
0.00020744203
0.00020179782
0.00017728635
0.00014484928
0.00011162633
8.6946669e-05
7.5052811e-05
4.3884708e-05
2.4112279e-05
1.7301765e-05
1.4585312e-05
1.0815303e-05
6.5584279e-06
3.9846228e-06
2.3392929e-06
1.200379e-06
4.8963597e-07
1.7220639e-07
5.3934782e-08
1.5396418e-08
4.028418e-09
9.5336761e-10
1.9748381e-10
3.3795064e-11
4.3735517e-12
4.4308249e-13
1.3826392e-13
1.4749602e-13
0.00052287871
0.00027913404
0.00020741475
0.00020158238
0.00017707385
0.00014465784
0.00011145702
8.6765873e-05
7.4935949e-05
4.3802281e-05
2.4060937e-05
1.7261523e-05
1.4546604e-05
1.0770553e-05
6.5304694e-06
3.9672299e-06
2.3282753e-06
1.193295e-06
4.8639375e-07
1.709828e-07
5.3537414e-08
1.5281273e-08
3.998166e-09
9.4621217e-10
1.9600502e-10
3.3542941e-11
4.3413783e-12
4.4026191e-13
1.3776796e-13
1.4701114e-13
0.00052538011
0.0002806308
0.00020737749
0.00020136085
0.00017686332
0.00014447138
0.00011129263
8.6588366e-05
7.4817877e-05
4.3718649e-05
2.4009028e-05
1.7221226e-05
1.4508013e-05
1.0725998e-05
6.5025596e-06
3.9498395e-06
2.3172476e-06
1.186193e-06
4.8314225e-07
1.6975521e-07
5.3138652e-08
1.5165696e-08
3.9677955e-09
9.3902776e-10
1.9452014e-10
3.3289765e-11
4.3090704e-12
4.3742994e-13
1.3727065e-13
1.4652518e-13
0.00052789462
0.00028213805
0.00020733813
0.00020113627
0.00017665397
0.00014428779
0.00011113127
8.6413033e-05
7.4698919e-05
4.3634137e-05
2.3956751e-05
1.7180937e-05
1.4469436e-05
1.0681571e-05
6.4746974e-06
3.9324677e-06
2.3062333e-06
1.1791074e-06
4.7990039e-07
1.6853199e-07
5.2741454e-08
1.5050582e-08
3.9375452e-09
9.3187142e-10
1.9304091e-10
3.3037535e-11
4.276876e-12
4.3460213e-13
1.3676838e-13
1.4603319e-13
0.0005304216
0.00028365531
0.00020730102
0.0002009106
0.0001764452
0.00014410581
0.00011097174
8.6239158e-05
7.4579284e-05
4.354896e-05
2.3904238e-05
1.7140695e-05
1.4430927e-05
1.0637303e-05
6.4469283e-06
3.9151347e-06
2.2952471e-06
1.172044e-06
4.7667116e-07
1.6731423e-07
5.2346121e-08
1.4936023e-08
3.9074417e-09
9.2474936e-10
1.9156868e-10
3.2786475e-11
4.2448269e-12
4.3178364e-13
1.3626432e-13
1.4553874e-13
0.00053296054
0.00028518222
0.00020726816
0.00020068419
0.00017623685
0.00014392494
0.00011081352
8.606629e-05
7.4459121e-05
4.3463253e-05
2.3851584e-05
1.7100526e-05
1.4392515e-05
1.0593224e-05
6.4192523e-06
3.8978566e-06
2.2842975e-06
1.1650098e-06
4.734584e-07
1.6610337e-07
5.195313e-08
1.4822156e-08
3.8775207e-09
9.1767035e-10
1.9010532e-10
3.253691e-11
4.2129641e-12
4.289785e-13
1.3575956e-13
1.45043e-13
0.00053551098
0.0002867185
0.00020724077
0.00020045742
0.0001760286
0.00014374482
0.00011065644
8.5894278e-05
7.4338514e-05
4.3377104e-05
2.3798852e-05
1.7060453e-05
1.4354229e-05
1.0549336e-05
6.3916827e-06
3.8806434e-06
2.2733918e-06
1.1580113e-06
4.7026461e-07
1.6490041e-07
5.1562857e-08
1.470909e-08
3.8478105e-09
9.1064107e-10
1.8865217e-10
3.2289083e-11
4.1813196e-12
4.261899e-13
1.3525518e-13
1.4454717e-13
0.0005380725
0.0002882639
0.0002072195
0.00020023051
0.00017582061
0.00014356541
0.00011050038
8.5723016e-05
7.4217508e-05
4.3290574e-05
2.3746088e-05
1.7020486e-05
1.431609e-05
1.0505643e-05
6.364243e-06
3.8634979e-06
2.2625341e-06
1.1510505e-06
4.6709064e-07
1.637057e-07
5.1175421e-08
1.4596861e-08
3.8183204e-09
9.036637e-10
1.8720971e-10
3.2043069e-11
4.1499039e-12
4.2341897e-13
1.3475158e-13
1.4405161e-13
0.00054064469
0.00028981814
0.00020720492
0.00020000366
0.00017561282
0.00014338669
0.00011034528
8.5552354e-05
7.4096124e-05
4.3203707e-05
2.369333e-05
1.6980633e-05
1.4278108e-05
1.0462165e-05
6.3369238e-06
3.8464281e-06
2.2517274e-06
1.1441287e-06
4.6393763e-07
1.6251971e-07
5.0790937e-08
1.4485509e-08
3.7890631e-09
8.9674139e-10
1.8577854e-10
3.1798975e-11
4.1187311e-12
4.206675e-13
1.3424962e-13
1.4355726e-13
0.00054322713
0.00029138096
0.00020719717
0.00019977671
0.00017540524
0.00014320849
0.00011019097
8.5382269e-05
7.3974369e-05
4.3116542e-05
2.3640609e-05
1.6940899e-05
1.4240282e-05
1.0418894e-05
6.3097272e-06
3.8294371e-06
2.2409736e-06
1.1372482e-06
4.6080662e-07
1.6134272e-07
5.0409489e-08
1.4375053e-08
3.7600425e-09
8.8987484e-10
1.8435889e-10
3.1556819e-11
4.0878028e-12
4.1793558e-13
1.3374923e-13
1.4306408e-13
0.00054581941
0.0002929521
0.0002071964
0.00019954947
0.00017519779
0.00014303081
0.0001100374
8.5212668e-05
7.3852235e-05
4.302911e-05
2.358795e-05
1.6901291e-05
1.4202621e-05
1.037583e-05
6.2826714e-06
3.8125239e-06
2.230275e-06
1.130411e-06
4.5769788e-07
1.6017491e-07
5.0031181e-08
1.426552e-08
3.7312647e-09
8.8306574e-10
1.8295105e-10
3.1316674e-11
4.0571275e-12
4.1522421e-13
1.3325078e-13
1.4257246e-13
0.00054842111
0.00029453136
0.00020720265
0.00019932213
0.00017499045
0.00014285366
0.00010988462
8.5043539e-05
7.3729705e-05
4.2941456e-05
2.3535372e-05
1.6861807e-05
1.4165135e-05
1.0332977e-05
6.2557416e-06
3.7956907e-06
2.2196312e-06
1.1236156e-06
4.546112e-07
1.590162e-07
4.9655981e-08
1.4156905e-08
3.7027291e-09
8.7631381e-10
1.8155503e-10
3.1078538e-11
4.0267074e-12
4.1253361e-13
1.3275447e-13
1.4208266e-13
0.00055103181
0.00029611849
0.00020721583
0.00019909469
0.00017478327
0.00014267694
0.0001097326
8.4874937e-05
7.3606753e-05
4.2853605e-05
2.3482886e-05
1.6822449e-05
1.4127818e-05
1.0290336e-05
6.228937e-06
3.7789393e-06
2.2090425e-06
1.1168629e-06
4.5154723e-07
1.5786681e-07
4.9283924e-08
1.4049223e-08
3.6744405e-09
8.6962046e-10
1.8017104e-10
3.0842455e-11
3.9965476e-12
4.0986439e-13
1.3226051e-13
1.4159483e-13
0.00055365112
0.00029771325
0.00020723596
0.00019886711
0.00017457615
0.00014250068
0.00010958129
8.4706794e-05
7.3483345e-05
4.2765573e-05
2.3430508e-05
1.6783214e-05
1.4090666e-05
1.0247903e-05
6.2022719e-06
3.7622655e-06
2.1985078e-06
1.110153e-06
4.4850544e-07
1.567265e-07
4.8914926e-08
1.3942442e-08
3.6463905e-09
8.6298326e-10
1.7879862e-10
3.0608325e-11
3.9666348e-12
4.0721526e-13
1.3176859e-13
1.4110867e-13
0.00055627856
0.00029931541
0.00020726304
0.00019863905
0.00017436906
0.00014232469
0.00010943062
8.4539087e-05
7.3359441e-05
4.2677375e-05
2.3378256e-05
1.6744106e-05
1.4053693e-05
1.0205674e-05
6.1757344e-06
3.7456724e-06
2.1880295e-06
1.1034858e-06
4.4548588e-07
1.5559533e-07
4.8549056e-08
1.3836582e-08
3.618583e-09
8.5640354e-10
1.7743806e-10
3.0376205e-11
3.9369764e-12
4.0458729e-13
1.3127921e-13
1.4062475e-13
0.00055891369
0.00030092473
0.00020729721
0.00019841064
0.00017416184
0.000142149
0.00010928054
8.4371727e-05
7.3235036e-05
4.2589051e-05
2.3326145e-05
1.6705122e-05
1.4016892e-05
1.0163657e-05
6.1493204e-06
3.7291607e-06
2.1776054e-06
1.0968607e-06
4.4248844e-07
1.5447325e-07
4.8186283e-08
1.3731635e-08
3.5910168e-09
8.4988083e-10
1.7608927e-10
3.0146092e-11
3.9075715e-12
4.0198013e-13
1.3079205e-13
1.4014273e-13
0.00056155606
0.00030254098
0.00020733817
0.00019818206
0.00017395471
0.00014197365
0.00010913088
8.4204709e-05
7.3024566e-05
4.2500843e-05
2.327418e-05
1.6666261e-05
1.3980256e-05
1.0121844e-05
6.1230439e-06
3.7127268e-06
2.1672352e-06
1.090278e-06
4.3951338e-07
1.5336027e-07
4.7826573e-08
1.3627598e-08
3.5636907e-09
8.4341504e-10
1.7475223e-10
2.9917983e-11
3.8784217e-12
3.9939395e-13
1.3030725e-13
1.3966277e-13
0.00056420521
0.00030416394
0.0002073859
0.00019795322
0.00017374753
0.0001417986
0.00010898149
8.4038123e-05
7.2803949e-05
4.241288e-05
2.3222361e-05
1.6627519e-05
1.3943789e-05
1.0080229e-05
6.0968941e-06
3.6963717e-06
2.1569198e-06
1.0837374e-06
4.3655986e-07
1.5225613e-07
4.7469833e-08
1.3524435e-08
3.5365961e-09
8.3700383e-10
1.7342638e-10
2.9691774e-11
3.8495127e-12
3.9682778e-13
1.2982495e-13
1.3918502e-13
0.00056686071
0.00030579337
0.00020744033
0.00019772385
0.00017354034
0.00014162388
0.00010883229
8.3871928e-05
7.258426e-05
4.2325163e-05
2.3170692e-05
1.6588897e-05
1.3907494e-05
1.0038821e-05
6.0708666e-06
3.6800988e-06
2.1466598e-06
1.0772391e-06
4.3362839e-07
1.5116102e-07
4.7116178e-08
1.3422179e-08
3.5097413e-09
8.3064939e-10
1.7211228e-10
2.9467553e-11
3.8208562e-12
3.942827e-13
1.2934534e-13
1.3870968e-13
0.00056952212
0.00030742901
0.0002075018
0.00019749384
0.00017333308
0.00014144943
0.00010868328
8.3706127e-05
7.2365594e-05
4.2237708e-05
2.3119173e-05
1.6550394e-05
1.387136e-05
9.9976109e-06
6.0449707e-06
3.6639018e-06
2.1364523e-06
1.0707818e-06
4.3071846e-07
1.5007469e-07
4.6765506e-08
1.3320801e-08
3.483118e-09
8.2434973e-10
1.7080947e-10
2.9245251e-11
3.7924418e-12
3.9175739e-13
1.2886767e-13
1.3823593e-13
0.00057218902
0.00030907055
0.00020757045
0.00019726361
0.00017312577
0.00014127527
0.00010853443
8.3540734e-05
7.2147922e-05
4.2150522e-05
2.3067804e-05
1.6512004e-05
1.3835387e-05
9.9565947e-06
6.0192002e-06
3.6477818e-06
2.1262987e-06
1.0643665e-06
4.2783029e-07
1.4899718e-07
4.641779e-08
1.3220301e-08
3.4567261e-09
8.1810483e-10
1.69518e-10
2.9024884e-11
3.7642729e-12
3.8925255e-13
1.2839257e-13
1.377645e-13
0.00057486087
0.00031071769
0.00020764628
0.0001970332
0.00017291857
0.00014110147
0.00010838585
8.3375708e-05
7.1931105e-05
4.2063601e-05
2.301658e-05
1.6473726e-05
1.3799581e-05
9.915774e-06
5.9935466e-06
3.6317399e-06
2.1161981e-06
1.0579919e-06
4.2496302e-07
1.4792825e-07
4.6072959e-08
1.312065e-08
3.4305592e-09
8.1191314e-10
1.6823745e-10
2.880638e-11
3.7363408e-12
3.8676753e-13
1.2792006e-13
1.3729544e-13
0.00057753717
0.00031237017
0.00020772921
0.00019680242
0.00017271131
0.00014092798
0.00010823749
8.3211102e-05
7.171515e-05
4.197694e-05
2.2965499e-05
1.6435558e-05
1.3763936e-05
9.8751484e-06
5.9680187e-06
3.6157727e-06
2.1061492e-06
1.0516573e-06
4.2211681e-07
1.4686795e-07
4.5731079e-08
1.3021868e-08
3.4046226e-09
8.0577601e-10
1.6696817e-10
2.8589791e-11
3.7086525e-12
3.8430271e-13
1.2744996e-13
1.3682848e-13
0.00058021747
0.00031402771
0.00020781926
0.00019657106
0.00017250407
0.00014075473
0.00010808923
8.3046843e-05
7.1500062e-05
4.1890535e-05
2.2914561e-05
1.6397499e-05
1.3728445e-05
9.8347118e-06
5.9426137e-06
3.5998781e-06
2.0961503e-06
1.0453623e-06
4.1929115e-07
1.4581595e-07
4.5392016e-08
1.2923914e-08
3.3789042e-09
7.9969054e-10
1.6570958e-10
2.8375008e-11
3.6811929e-12
3.8185666e-13
1.2698188e-13
1.363632e-13
0.00058290128
0.00031569006
0.00020791654
0.0001963393
0.0001722967
0.00014058178
0.00010794112
8.2882901e-05
7.1285843e-05
4.1804386e-05
2.2863768e-05
1.6359546e-05
1.369311e-05
9.79446e-06
5.9173232e-06
3.5840604e-06
2.0862043e-06
1.039108e-06
4.1648651e-07
1.4477251e-07
4.5055817e-08
1.282681e-08
3.3534102e-09
7.9365818e-10
1.6446196e-10
2.81621e-11
3.6539705e-12
3.7943061e-13
1.2651643e-13
1.3590034e-13
0.00058558814
0.00031735693
0.00020802091
0.0001961074
0.0001720894
0.00014040907
0.00010779316
8.2719322e-05
7.1072459e-05
4.1718495e-05
2.2813121e-05
1.6321695e-05
1.3657932e-05
9.7543986e-06
5.8921516e-06
3.568316e-06
2.0763088e-06
1.0328925e-06
4.1370192e-07
1.4373728e-07
4.4722378e-08
1.2730519e-08
3.3281308e-09
7.8767658e-10
1.6322482e-10
2.7950975e-11
3.6269746e-12
3.7702334e-13
1.2605327e-13
1.3543953e-13
0.00058827757
0.00031902804
0.00020813244
0.0001958752
0.00017188208
0.00014023672
0.0001076454
8.2556065e-05
7.0859927e-05
4.1632863e-05
2.2762616e-05
1.6283946e-05
1.3622907e-05
9.7145229e-06
5.8671036e-06
3.552643e-06
2.0664624e-06
1.0267155e-06
4.1093742e-07
1.4271026e-07
4.4391742e-08
1.2635053e-08
3.3030709e-09
7.8174699e-10
1.6199837e-10
2.7741679e-11
3.6002115e-12
3.7463547e-13
1.255925e-13
1.3498085e-13
0.00059096909
0.00032070312
0.000208251
0.00019564243
0.00017167468
0.00014006455
0.00010749775
8.2393169e-05
7.06484e-05
4.1547496e-05
2.2712252e-05
1.6246296e-05
1.3588029e-05
9.6748233e-06
5.8421649e-06
3.5370423e-06
2.0566661e-06
1.0205774e-06
4.0819294e-07
1.4169125e-07
4.4063815e-08
1.2540382e-08
3.2782202e-09
7.7586693e-10
1.6078218e-10
2.753412e-11
3.5736693e-12
3.7226586e-13
1.251339e-13
1.3452407e-13
0.00059366223
0.0003223819
0.00020837651
0.00019540901
0.00017146718
0.00013989262
0.00010735014
8.2230609e-05
7.0437748e-05
4.1462407e-05
2.2662028e-05
1.6208742e-05
1.3553297e-05
9.635307e-06
5.8173388e-06
3.5215159e-06
2.046921e-06
1.0144786e-06
4.0546875e-07
1.4068053e-07
4.3738661e-08
1.2446531e-08
3.2535863e-09
7.7003823e-10
1.595766e-10
2.732836e-11
3.5473555e-12
3.699155e-13
1.2467788e-13
1.3406962e-13
0.00059635651
0.00032406412
0.00020850954
0.00019517526
0.0001712596
0.00013972093
0.00010720269
8.2068372e-05
7.0227927e-05
4.1377602e-05
2.2611945e-05
1.617128e-05
1.3518714e-05
9.5959691e-06
5.792635e-06
3.5060571e-06
2.0372227e-06
1.0084163e-06
4.0276347e-07
1.3967754e-07
4.3416099e-08
1.2353446e-08
3.2291537e-09
7.642571e-10
1.5838085e-10
2.7124277e-11
3.5212532e-12
3.6758271e-13
1.242239e-13
1.3361697e-13
0.00059905145
0.00032574953
0.00020865001
0.00019494125
0.0001710521
0.00013954951
0.00010705536
8.1906471e-05
7.0018843e-05
4.1293078e-05
2.2562005e-05
1.6133908e-05
1.3484277e-05
9.5568066e-06
5.7680367e-06
3.4906675e-06
2.0275726e-06
1.0023914e-06
4.0007753e-07
1.386824e-07
4.3096215e-08
1.2261149e-08
3.2049309e-09
7.585257e-10
1.5719537e-10
2.692195e-11
3.4953748e-12
3.6526863e-13
1.2377233e-13
1.3316651e-13
0.00060174658
0.00032743786
0.00020879803
0.00019470657
0.00017084451
0.00013937834
0.00010690815
8.1744868e-05
6.9810452e-05
4.1208837e-05
2.2512206e-05
1.6096624e-05
1.3449979e-05
9.5178136e-06
5.7435423e-06
3.4753484e-06
2.0179705e-06
9.9640426e-07
3.9741099e-07
1.37695e-07
4.2778944e-08
1.2169619e-08
3.1809105e-09
7.5284224e-10
1.5601975e-10
2.6721306e-11
3.4697104e-12
3.6297229e-13
1.2332285e-13
1.3271791e-13
0.00060444141
0.00032912882
0.00020895376
0.00019447109
0.00017063688
0.00013920731
0.00010676094
8.1583563e-05
6.9602873e-05
4.1124882e-05
2.2462547e-05
1.6059425e-05
1.3415819e-05
9.4789949e-06
5.7191688e-06
3.4600965e-06
2.008416e-06
9.9045392e-07
3.9476361e-07
1.3671547e-07
4.2464311e-08
1.2078867e-08
3.1570961e-09
7.472077e-10
1.5485429e-10
2.6522381e-11
3.4442653e-12
3.6069435e-13
1.2287579e-13
1.3227147e-13
0.00060713546
0.00033082212
0.00020911704
0.00019423508
0.00017042914
0.00013903648
0.00010661376
8.1422517e-05
6.9396061e-05
4.1041218e-05
2.2413029e-05
1.6022306e-05
1.3381804e-05
9.4403494e-06
5.6948984e-06
3.4449101e-06
1.998906e-06
9.8453824e-07
3.9213414e-07
1.3574325e-07
4.2152123e-08
1.1988839e-08
3.1334718e-09
7.4161804e-10
1.5369808e-10
2.6325029e-11
3.4190193e-12
3.5843308e-13
1.2243086e-13
1.3182692e-13
0.00060982824
0.00033251751
0.00020928695
0.00019399886
0.00017022145
0.00013886592
0.00010646672
8.1261757e-05
6.9189941e-05
4.0957852e-05
2.2363656e-05
1.5985265e-05
1.3347927e-05
9.4018666e-06
5.6707293e-06
3.429793e-06
1.9894437e-06
9.786597e-07
3.8952361e-07
1.3477867e-07
4.1842535e-08
1.1899575e-08
3.1100504e-09
7.3607654e-10
1.5255186e-10
2.6129385e-11
3.3939894e-12
3.5618998e-13
1.2198827e-13
1.3138451e-13
0.00061251928
0.00033421472
0.00020946159
0.0001937622
0.00017001379
0.00013869557
0.00010631972
8.1101305e-05
6.8984545e-05
4.0874791e-05
2.2314432e-05
1.59483e-05
1.3314177e-05
9.363551e-06
5.6466734e-06
3.4147409e-06
1.9800271e-06
9.7281701e-07
3.8693161e-07
1.3382146e-07
4.1535428e-08
1.1811039e-08
3.0868216e-09
7.3058053e-10
1.5141498e-10
2.5935335e-11
3.3691624e-12
3.5396348e-13
1.2154745e-13
1.3094362e-13
0.00061520811
0.00033591349
0.00020964786
0.00019352465
0.00016980604
0.00013852542
0.00010617273
8.0941107e-05
6.8779928e-05
4.0792051e-05
2.2265359e-05
1.5911404e-05
1.3280567e-05
9.3254058e-06
5.6227235e-06
3.399755e-06
1.9706561e-06
9.6700953e-07
3.8435791e-07
1.3287178e-07
4.123085e-08
1.1723248e-08
3.0637899e-09
7.2513143e-10
1.5028782e-10
2.5742944e-11
3.3445473e-12
3.5175496e-13
1.2110919e-13
1.3050512e-13
0.00061789433
0.00033761357
0.00020984599
0.00019328623
0.00016959825
0.00013835538
0.00010602569
8.0781175e-05
6.85761e-05
4.0709646e-05
2.2216436e-05
1.5874575e-05
1.3247094e-05
9.2874215e-06
5.5988705e-06
3.3848341e-06
1.9613296e-06
9.612362e-07
3.8180166e-07
1.3192918e-07
4.0928632e-08
1.1636154e-08
3.0409414e-09
7.1972556e-10
1.4916958e-10
2.555206e-11
3.3201239e-12
3.4956256e-13
1.206731e-13
1.3006858e-13
0.00062057741
0.0003393147
0.00021005225
0.00019304731
0.0001693904
0.00013818558
0.00010587872
8.0621509e-05
6.8372996e-05
4.0627585e-05
2.2167668e-05
1.5837804e-05
1.3213748e-05
9.249598e-06
5.5751237e-06
3.3699781e-06
1.9520488e-06
9.55499e-07
3.792637e-07
1.3099391e-07
4.06289e-08
1.1549793e-08
3.0182867e-09
7.1436568e-10
1.4806088e-10
2.5362801e-11
3.2959066e-12
3.4738741e-13
1.2023918e-13
1.2963396e-13
0.00062325685
0.00034101663
0.0002102665
0.00019280816
0.00016918272
0.00013801596
0.00010573178
8.0462135e-05
6.8170588e-05
4.0545877e-05
2.211906e-05
1.5801091e-05
1.3180525e-05
9.2119356e-06
5.5514819e-06
3.3551842e-06
1.9428111e-06
9.4979555e-07
3.7674334e-07
1.3006564e-07
4.0331521e-08
1.146412e-08
2.9958143e-09
7.0904885e-10
1.4696107e-10
2.517506e-11
3.2718809e-12
3.452281e-13
1.1980701e-13
1.2920086e-13
0.00062593222
0.00034271912
0.00021049772
0.0001925682
0.00016897498
0.00013784649
0.00010558475
8.0303016e-05
6.796892e-05
4.0464528e-05
2.207062e-05
1.5764425e-05
1.3147438e-05
9.1744346e-06
5.5279358e-06
3.3404545e-06
1.9336178e-06
9.441263e-07
3.742407e-07
1.2914465e-07
4.0036592e-08
1.1379169e-08
2.9735332e-09
7.0377751e-10
1.4587063e-10
2.4988925e-11
3.2480604e-12
3.4308613e-13
1.1937727e-13
1.2877002e-13
0.00062860305
0.00034442196
0.0002107323
0.00019232718
0.00016876722
0.00013767714
0.00010543766
8.0144111e-05
6.7767972e-05
4.0383548e-05
2.2022355e-05
1.57278e-05
1.311448e-05
9.1370833e-06
5.5044864e-06
3.3257873e-06
1.9244675e-06
9.3849036e-07
3.7175486e-07
1.2823047e-07
3.9743924e-08
1.1294882e-08
2.951427e-09
6.9854753e-10
1.4478873e-10
2.4804242e-11
3.2244247e-12
3.4095957e-13
1.1894948e-13
1.2834096e-13
0.0006312689
0.00034612493
0.00021097273
0.00019208524
0.00016855939
0.00013750789
0.00010529051
7.9985458e-05
6.7567701e-05
4.0302949e-05
2.1974274e-05
1.5691207e-05
1.3081641e-05
9.0998876e-06
5.4811436e-06
3.3111804e-06
1.9153601e-06
9.328886e-07
3.6928644e-07
1.2732325e-07
3.9453611e-08
1.1211294e-08
2.9295052e-09
6.9336133e-10
1.4371591e-10
2.4621098e-11
3.2009858e-12
3.3884958e-13
1.1852389e-13
1.2791387e-13
0.00063392932
0.00034782778
0.00021122012
0.00019184271
0.00016835161
0.00013733886
0.00010514334
7.9827051e-05
6.7368072e-05
4.0222742e-05
2.1926385e-05
1.5654636e-05
1.3048929e-05
9.0628492e-06
5.4578924e-06
3.2966335e-06
1.9062937e-06
9.2731899e-07
3.6683483e-07
1.264227e-07
3.9165546e-08
1.1128363e-08
2.9077569e-09
6.8821619e-10
1.426516e-10
2.4439402e-11
3.1777299e-12
3.3675483e-13
1.1810014e-13
1.2748838e-13
0.00063658395
0.00034953026
0.00021147495
0.00019159964
0.00016814399
0.00013716989
0.00010499602
7.9668899e-05
6.7169149e-05
4.0142938e-05
2.1878704e-05
1.5618076e-05
1.3016349e-05
9.0259586e-06
5.434733e-06
3.2821505e-06
1.8972711e-06
9.2178274e-07
3.644004e-07
1.255292e-07
3.8879846e-08
1.1046127e-08
2.8861933e-09
6.8311477e-10
1.4159633e-10
2.4259255e-11
3.1546702e-12
3.346767e-13
1.1767864e-13
1.2706498e-13
0.00063923239
0.00035123206
0.00021173768
0.00019135549
0.00016793641
0.00013700105
0.00010484856
7.9510966e-05
6.6970937e-05
4.0063553e-05
2.1831251e-05
1.5581514e-05
1.298389e-05
8.989216e-06
5.4116786e-06
3.2677248e-06
1.8882893e-06
9.1627865e-07
3.6198195e-07
1.2464216e-07
3.8596291e-08
1.0964519e-08
2.8647952e-09
6.7805259e-10
1.405491e-10
2.4080482e-11
3.1317854e-12
3.3261303e-13
1.1725887e-13
1.2664312e-13
0.00064187412
0.00035293293
0.00021200855
0.00019111019
0.00016772898
0.00013683229
0.00010470102
7.9353287e-05
6.6773387e-05
3.9984605e-05
2.1784046e-05
1.5544931e-05
1.2951552e-05
8.9526253e-06
5.3887154e-06
3.2533586e-06
1.8793487e-06
9.1080714e-07
3.5958029e-07
1.2376181e-07
3.8314993e-08
1.0883581e-08
2.8435743e-09
6.7303248e-10
1.3951061e-10
2.3903199e-11
3.1090913e-12
3.3056561e-13
1.1684147e-13
1.2622348e-13
0.00064450871
0.00035463266
0.00021228769
0.000190864
0.00016752162
0.00013666371
0.00010455336
7.9195889e-05
6.6576502e-05
3.9906104e-05
2.1737112e-05
1.550831e-05
1.2919339e-05
8.9161801e-06
5.3658391e-06
3.2390524e-06
1.8704489e-06
9.0536724e-07
3.5719508e-07
1.2288797e-07
3.8035888e-08
1.0803286e-08
2.8225225e-09
6.6805247e-10
1.3848042e-10
2.3727319e-11
3.0865763e-12
3.2853312e-13
1.1642593e-13
1.258055e-13
0.00064713578
0.00035633103
0.00021257508
0.00019061741
0.00016731457
0.00013649523
0.00010440552
7.9038751e-05
6.6380323e-05
3.9828058e-05
2.1690474e-05
1.5471629e-05
1.2887245e-05
8.8798735e-06
5.3430618e-06
3.2248052e-06
1.8615913e-06
8.9995955e-07
3.5482632e-07
1.2202086e-07
3.7759033e-08
1.0723651e-08
2.801646e-09
6.63114e-10
1.3745886e-10
2.3552912e-11
3.0642478e-12
3.2651633e-13
1.1601244e-13
1.2538935e-13
0.00064975492
0.00035802779
0.00021287061
0.00019037009
0.00016710777
0.00013632683
0.00010425745
7.888187e-05
6.6184824e-05
3.9750279e-05
2.1644015e-05
1.5434946e-05
1.2855261e-05
8.8437088e-06
5.3203755e-06
3.2106135e-06
1.8527726e-06
8.94583e-07
3.5247292e-07
1.2115996e-07
3.7484242e-08
1.0644619e-08
2.7809286e-09
6.5821301e-10
1.3644501e-10
2.3379822e-11
3.0420855e-12
3.2451355e-13
1.156008e-13
1.2497489e-13
0.00065236578
0.00035972275
0.00021317446
0.00019012152
0.00016690121
0.00013615859
0.00010410924
7.8725254e-05
6.5989937e-05
3.9672599e-05
2.1597618e-05
1.5398319e-05
1.282338e-05
8.8076846e-06
5.297774e-06
3.19648e-06
1.8439939e-06
8.8923802e-07
3.5013595e-07
1.2030558e-07
3.7211646e-08
1.0566237e-08
2.7603835e-09
6.5335313e-10
1.3543963e-10
2.3208188e-11
3.0201094e-12
3.2252654e-13
1.151914e-13
1.2456251e-13
0.00065496798
0.0003614157
0.00021348676
0.00018987164
0.00016669492
0.00013599041
0.00010396076
7.8568945e-05
6.5795691e-05
3.9595017e-05
2.1551283e-05
1.5361747e-05
1.2791602e-05
8.7717882e-06
5.2752615e-06
3.1824043e-06
1.8352551e-06
8.8392358e-07
3.4781479e-07
1.1945746e-07
3.6941152e-08
1.0488474e-08
2.7400008e-09
6.4853162e-10
1.3444219e-10
2.30379e-11
2.9983048e-12
3.2055363e-13
1.1478354e-13
1.2415149e-13
0.00065756119
0.00036310644
0.00021380762
0.00018962082
0.00016648892
0.00013582234
0.00010381198
7.8412909e-05
6.5602127e-05
3.9517535e-05
2.1505007e-05
1.532523e-05
1.2759926e-05
8.7360258e-06
5.2528434e-06
3.168384e-06
1.8265566e-06
8.786402e-07
3.4550932e-07
1.1861572e-07
3.6672794e-08
1.0411337e-08
2.7197842e-09
6.4374966e-10
1.3345298e-10
2.2869007e-11
2.9766788e-12
3.1859591e-13
1.1437788e-13
1.237425e-13
0.00066014505
0.0003647948
0.00021413671
0.0001893695
0.00016628351
0.00013565433
0.00010366286
7.8257141e-05
6.54092e-05
3.9440152e-05
2.145879e-05
1.5288762e-05
1.2728347e-05
8.7003973e-06
5.2305065e-06
3.1544179e-06
1.8178954e-06
8.7338702e-07
3.4321876e-07
1.1778e-07
3.6406434e-08
1.0334782e-08
2.6997209e-09
6.390038e-10
1.3247124e-10
2.2701385e-11
2.9552137e-12
3.1665194e-13
1.1397426e-13
1.2333539e-13
0.00066271926
0.00036648061
0.000214474
0.00018911712
0.00016607861
0.00013548649
0.00010351346
7.810166e-05
6.5216858e-05
3.9362867e-05
2.1412627e-05
1.5252343e-05
1.2696859e-05
8.6648948e-06
5.2082515e-06
3.1405098e-06
1.8092734e-06
8.6816448e-07
3.4094419e-07
1.1695062e-07
3.6142203e-08
1.0258856e-08
2.6798246e-09
6.3429754e-10
1.3149766e-10
2.2535164e-11
2.9339257e-12
3.1472294e-13
1.1357265e-13
1.2293014e-13
0.00066528352
0.00036816366
0.00021481968
0.00018886318
0.00016587429
0.00013531871
0.00010336365
7.7946493e-05
6.5025139e-05
3.9285684e-05
2.1366521e-05
1.5215968e-05
1.266546e-05
8.6295115e-06
5.1860901e-06
3.1266546e-06
1.8006899e-06
8.6297121e-07
3.3868471e-07
1.1612719e-07
3.5879961e-08
1.0183515e-08
2.6600821e-09
6.2962776e-10
1.3053158e-10
2.2370224e-11
2.9128007e-12
3.1280722e-13
1.1317238e-13
1.2252599e-13
0.00066783753
0.00036984381
0.00021517374
0.00018860756
0.00016567059
0.00013515106
0.00010321334
7.7791616e-05
6.4834083e-05
3.9208607e-05
2.1320473e-05
1.5179637e-05
1.2634151e-05
8.5942566e-06
5.16401e-06
3.1128539e-06
1.7921452e-06
8.5780829e-07
3.3644036e-07
1.1530989e-07
3.5619777e-08
1.0108779e-08
2.6404994e-09
6.2499594e-10
1.2957337e-10
2.2206625e-11
2.8918474e-12
3.1090619e-13
1.1277434e-13
1.2212398e-13
0.00067038105
0.00037152091
0.00021553627
0.00018835097
0.00016546785
0.00013498373
0.00010306262
7.763702e-05
6.4643642e-05
3.9131639e-05
2.1274482e-05
1.5143346e-05
1.2602924e-05
8.5591244e-06
5.1420064e-06
3.0991073e-06
1.7836366e-06
8.5267468e-07
3.3421058e-07
1.1449846e-07
3.5361535e-08
1.0034608e-08
2.6210659e-09
6.2039948e-10
1.2862251e-10
2.2044267e-11
2.8710527e-12
3.090187e-13
1.1237832e-13
1.2172387e-13
0.00067291379
0.00037319472
0.00021590714
0.00018809363
0.00016526635
0.00013481668
0.00010291149
7.7482708e-05
6.4453782e-05
3.905478e-05
2.1228547e-05
1.5107094e-05
1.2571773e-05
8.5241039e-06
5.1200916e-06
3.0854146e-06
1.7751664e-06
8.4757034e-07
3.3199606e-07
1.1369308e-07
3.510532e-08
9.9610335e-09
2.6017902e-09
6.1584025e-10
1.2767937e-10
2.1883227e-11
2.8504254e-12
3.0714528e-13
1.1198411e-13
1.2132536e-13
0.00067543554
0.00037486508
0.00021628644
0.00018783587
0.00016506544
0.00013464938
0.00010276012
7.7328698e-05
6.426454e-05
3.8978031e-05
2.1182667e-05
1.5070876e-05
1.2540697e-05
8.4892001e-06
5.0982578e-06
3.0717733e-06
1.7667332e-06
8.4249419e-07
3.2979601e-07
1.1289338e-07
3.4851001e-08
9.8880158e-09
2.5826616e-09
6.1131588e-10
1.2674338e-10
2.1723411e-11
2.8299519e-12
3.0528462e-13
1.1159141e-13
1.2092818e-13
0.00067794609
0.00037653184
0.00021667446
0.00018757871
0.00016486345
0.00013448136
0.00010260891
7.7174999e-05
6.4075912e-05
3.8901392e-05
2.1136841e-05
1.503469e-05
1.2509692e-05
8.4544147e-06
5.0765008e-06
3.0581854e-06
1.7583375e-06
8.3744808e-07
3.2761077e-07
1.1209967e-07
3.4598689e-08
9.8155896e-09
2.563689e-09
6.068286e-10
1.2581505e-10
2.1564909e-11
2.8096464e-12
3.0343844e-13
1.1120097e-13
1.2053314e-13
0.00068044529
0.00037819489
0.00021707146
0.00018732147
0.00016466051
0.00013431282
0.00010245792
7.7021623e-05
6.3887836e-05
3.8824863e-05
2.1091071e-05
1.4998535e-05
1.2478747e-05
8.4197367e-06
5.0548238e-06
3.0446513e-06
1.7499771e-06
8.3243009e-07
3.2543958e-07
1.1131159e-07
3.4348239e-08
9.7437068e-09
2.5448596e-09
6.0237522e-10
1.2489372e-10
2.1407594e-11
2.7894924e-12
3.0160494e-13
1.1081219e-13
1.2013964e-13
0.00068293298
0.00037985409
0.00021747765
0.00018706458
0.00016445702
0.00013414393
0.00010230696
7.686858e-05
6.3700313e-05
3.8748445e-05
2.1045357e-05
1.4962407e-05
1.2447859e-05
8.3851627e-06
5.0332321e-06
3.0311683e-06
1.7416546e-06
8.2744045e-07
3.2328309e-07
1.1052933e-07
3.4099731e-08
9.6723908e-09
2.5261798e-09
5.9795738e-10
1.239798e-10
2.1251534e-11
2.769499e-12
2.9978497e-13
1.1042525e-13
1.1974784e-13
0.00068540898
0.00038150934
0.00021789274
0.00018680828
0.00016425313
0.00013397476
0.00010215604
7.6715851e-05
6.3513383e-05
3.8672137e-05
2.0999699e-05
1.4926303e-05
1.2417021e-05
8.3506982e-06
5.0117147e-06
3.0177364e-06
1.7333683e-06
8.2247871e-07
3.2114082e-07
1.0975263e-07
3.3853073e-08
9.6016176e-09
2.5076432e-09
5.9357313e-10
1.2307282e-10
2.1096653e-11
2.7496552e-12
2.9797769e-13
1.1004009e-13
1.1935766e-13
0.00068787315
0.00038316052
0.00021831682
0.00018655231
0.00016404886
0.00013380536
0.00010200515
7.6563425e-05
6.3327011e-05
3.859594e-05
2.0954096e-05
1.489022e-05
1.2386227e-05
8.3163393e-06
4.9902728e-06
3.0043586e-06
1.7251182e-06
8.1754651e-07
3.1901299e-07
1.0898172e-07
3.3608355e-08
9.5314149e-09
2.4892579e-09
5.8922491e-10
1.2217326e-10
2.0943045e-11
2.7299723e-12
2.9618419e-13
1.0965702e-13
1.1896942e-13
0.00069032542
0.00038480755
0.00021874988
0.0001862963
0.00016384417
0.00013363568
0.00010185438
7.6411316e-05
6.3141145e-05
3.8519852e-05
2.0908544e-05
1.4854157e-05
1.2355463e-05
8.2820744e-06
4.9689163e-06
2.9910298e-06
1.7169022e-06
8.1264092e-07
3.1689848e-07
1.0821614e-07
3.3365396e-08
9.4617263e-09
2.471007e-09
5.849084e-10
1.212802e-10
2.0790552e-11
2.7104306e-12