/*--------------------------------*- C++ -*----------------------------------*\
| =========                 |                                                 |
| \\      /  F ield         | OpenFOAM: The Open Source CFD Toolbox           |
|  \\    /   O peration     | Version:  v2012                                 |
|   \\  /    A nd           | Website:  www.openfoam.com                      |
|    \\/     M anipulation  |                                                 |
\*---------------------------------------------------------------------------*/
FoamFile
{
    version     2.0;
    format      ascii;
    class       volScalarField;
    location    "900";
    object      k;
}
// * * * * * * * * * * * * * * * * * * * * * * * * * * * * * * * * * * * * * //

dimensions      [0 2 -2 0 0 0 0];


internalField   nonuniform List<scalar> 
24000
(
0.15131437
0.20142213
0.3858099
0.86185018
1.5858577
2.3119018
2.7177448
2.6363832
2.2376786
1.7920791
1.9004328
2.9568743
4.3770276
5.4287545
5.5846304
4.9425408
3.7812091
2.4879918
1.4189807
0.73266689
0.35448684
0.16325669
0.071561551
0.029509882
0.011191706
0.0037609852
0.0010632941
0.00027953368
0.00030735164
0.002141735
0.15182495
0.2014976
0.38405904
0.85679612
1.5781791
2.3034838
2.7106264
2.6316082
2.234705
1.7890987
1.8965113
2.9506303
4.3683832
5.4174302
5.5694499
4.9256548
3.7652083
2.4753567
1.4107695
0.72807934
0.35216835
0.16216466
0.071077817
0.029309592
0.011115659
0.0037353775
0.0010558858
0.00027706236
0.00030296257
0.0021098156
0.15235428
0.20158421
0.38239467
0.85211222
1.5712979
2.2963033
2.7047815
2.62756
2.2318451
1.7858937
1.8924632
2.9444268
4.359468
5.4047575
5.5522949
4.9062377
3.7464025
2.4597847
1.4004399
0.72227358
0.34923557
0.16078527
0.070467086
0.029056631
0.011019614
0.0037032018
0.0010470535
0.00027550165
0.00030364393
0.0021163889
0.1528814
0.2016757
0.38075095
0.84747571
1.5644558
2.2891221
2.698829
2.6233185
2.2287499
1.7826015
1.8884257
2.9382562
4.3502701
5.3912205
5.5350245
4.8876787
3.7296485
2.4470771
1.3926155
0.71811601
0.34721499
0.15985849
0.070063085
0.028890805
0.010956943
0.0036822121
0.0010411881
0.00027413678
0.00030269466
0.002110171
0.15340604
0.20176832
0.37912194
0.84286726
1.5576333
2.2819564
2.6928635
2.6190428
2.2255922
1.77926
1.8843909
2.9321931
4.3411783
5.377425
5.5177074
4.8689876
3.7125903
2.4338771
1.3843177
0.71362369
0.34499957
0.15883176
0.069612474
0.02870509
0.0108866
0.0036586392
0.0010346303
0.00027270721
0.00030204645
0.0021063461
0.15392817
0.2018627
0.37750951
0.83828379
1.5508293
2.2748007
2.686887
2.614742
2.2223808
1.7758818
1.8803641
2.9262207
4.3322056
5.3637394
5.5004716
4.8503676
3.6956193
2.4207905
1.3761197
0.70919843
0.34282187
0.15782397
0.069170556
0.02852304
0.010817654
0.0036355309
0.0010281926
0.00027127831
0.00030130191
0.0021017731
0.15444767
0.20195842
0.37591348
0.83372314
1.5440426
2.2676542
2.6809057
2.6104289
2.2191357
1.7724779
1.8763468
2.9203262
4.3233418
5.3501548
5.4832996
4.8317722
3.6786424
2.407681
1.3678984
0.70475621
0.34063401
0.15681084
0.068726116
0.028339902
0.010748287
0.0036122792
0.0010217147
0.00026984086
0.00030055457
0.0020971871
0.15496444
0.20205513
0.37433351
0.82918407
1.5372725
2.2605156
2.6749215
2.6061085
2.2158632
1.7690544
1.8723383
2.9144928
4.3145626
5.3366507
5.4661842
4.8132183
3.6616978
2.3945999
1.3596977
0.70032585
0.33845203
0.15580038
0.068282812
0.028157219
0.010679087
0.0035890816
0.0010152504
0.00026840314
0.00029979506
0.0020925076
0.15547831
0.20215251
0.37276914
0.82466582
1.5305185
2.2533838
2.6689349
2.6017839
2.212568
1.7656154
1.8683379
2.9087071
4.3058504
5.3232103
5.4491223
4.7947101
3.6447957
2.3815574
1.3515242
0.69591093
0.3362777
0.1547934
0.067841001
0.027975138
0.01061011
0.0035659582
0.001008806
0.00026696794
0.00029902995
0.0020877829
0.15598911
0.20225024
0.37121991
0.82016779
1.52378
2.246258
2.6629461
2.5974566
2.2092538
1.7621634
1.8643451
2.9029597
4.2971908
5.3098219
5.4321094
4.7762519
3.6279456
2.3685637
1.3433861
0.69151638
0.33411355
0.15379113
0.067401239
0.027793894
0.010541448
0.0035429387
0.0010023898
0.00026553735
0.0002982613
0.0020830271
0.15649666
0.20234805
0.36968538
0.81568949
1.5170566
2.2391373
2.6569552
2.593128
2.2059226
1.7586999
1.8603596
2.897244
4.2885739
5.2964769
5.4151397
4.7578473
3.611155
2.3556276
1.3352899
0.68714612
0.33196161
0.15279452
0.066963948
0.027613662
0.010473167
0.003520046
0.00099600833
0.00026411311
0.00029749108
0.0020782538
0.15700079
0.20244568
0.36816513
0.81123057
1.5103479
2.2320212
2.6509621
2.5887989
2.2025749
1.7552259
1.8563809
2.8915552
4.2799936
5.2831691
5.3982143
4.7394975
3.5944275
2.342753
1.3272381
0.68280151
0.32982258
0.1518039
0.066529275
0.027434504
0.010405291
0.0034972882
0.00098966382
0.00026269584
0.00029671991
0.0020734676
0.15750132
0.20254289
0.36665871
0.80679055
1.5036537
2.2249092
2.6449667
2.5844701
2.1992108
1.751742
1.8524088
2.8858894
4.271445
5.2698943
5.3813313
4.7212038
3.5777659
2.3299426
1.3192329
0.67848393
0.32769728
0.15081969
0.06609741
0.027256499
0.01033785
0.0034746762
0.00098335957
0.00026128663
0.00029594965
0.0020686819
0.15799807
0.20263941
0.36516572
0.80236919
1.4969735
2.2178008
2.6389691
2.580142
2.1958298
1.7482486
1.8484434
2.8802442
4.2629239
5.2566495
5.3644867
4.7029674
3.5611725
2.317199
1.3112763
0.67419448
0.32558615
0.14984208
0.065668438
0.02707968
0.010270856
0.0034522129
0.00097709627
0.00025988555
0.00029518024
0.0020638962
0.15849087
0.20273503
0.36368581
0.79796613
1.4903072
2.2106958
2.6329692
2.5758148
2.192431
1.7447463
1.8444849
2.8746178
4.2544274
5.2434319
5.3476825
4.6847888
3.5446494
2.3045247
1.30337
0.66993414
0.32348972
0.14887131
0.06524246
0.026904091
0.010204325
0.0034299041
0.00097087558
0.00025849308
0.00029441237
0.0020591153
0.15897955
0.2028295
0.36221861
0.79358117
1.4836545
2.2035938
2.626967
2.5714887
2.1890134
1.7412355
1.8405334
2.8690087
4.2459546
5.2302401
5.3309181
4.6666679
3.5281964
2.2919191
1.2955134
0.66570257
0.32140785
0.14790733
0.064819467
0.02672973
0.010138259
0.0034077505
0.00096469777
0.00025710939
0.0002936464
0.0020543416
0.15946394
0.20292265
0.36076378
0.789214
1.4770152
2.1964948
2.6209627
2.5671639
2.1855756
1.7377169
1.8365888
2.8634157
4.237504
5.2170731
5.3141901
4.6486051
3.5118142
2.279383
1.2877073
0.66150039
0.31934092
0.14695035
0.06439955
0.026556637
0.010072673
0.0033857577
0.00095856446
0.00025573492
0.00029288266
0.0020495776
0.15994388
0.20301424
0.35932096
0.78486445
1.470389
2.1893984
2.6149559
2.5628408
2.1821161
1.7341907
1.8326512
2.8578379
4.2290732
5.2039297
5.2975001
4.6305994
3.4955018
2.2669159
1.2799511
0.65732695
0.31728847
0.14600011
0.063982583
0.026384752
0.010007542
0.0033639167
0.00095247306
0.000254369
0.00029212065
0.00204482
0.16041921
0.2031041
0.35788985
0.78053231
1.4637758
2.1823046
2.6089472
2.5585198
2.1786333
1.7306573
1.828721
2.8522743
4.2206618
5.1908079
5.2808479
4.6126509
3.4792603
2.2545186
1.2722453
0.65318276
0.31525081
0.14505678
0.063568652
0.026214118
0.0099428836
0.0033422336
0.00094642538
0.00025301224
0.00029136153
0.0020400771
0.16088975
0.20319201
0.35647015
0.77621739
1.4571754
2.1752132
2.6029364
2.5542006
2.1751267
1.7271173
1.8247982
2.8467244
4.2122695
5.177708
5.2642305
4.5947598
3.4630895
2.2421905
1.2645896
0.64906758
0.31322785
0.14412032
0.06315774
0.026044727
0.0098786952
0.0033207074
0.00094042114
0.00025166441
0.00029060458
0.0020353434
0.16135536
0.20327781
0.35506154
0.77191954
1.4505876
2.1681241
2.5969237
2.5498805
2.171612
1.723578
1.8208829
2.8411871
4.2038944
5.1646293
5.2476493
4.5769255
3.4469886
2.2299314
1.2569839
0.64498133
0.31121957
0.14319071
0.062749845
0.025876581
0.0098149784
0.0032993394
0.00093446067
0.00025032567
0.00028984999
0.0020306204
0.16181587
0.20336132
0.35366372
0.76763855
1.4440122
2.1610371
2.5909092
2.545558
2.1680977
1.7200434
1.816975
2.835662
4.1955356
5.1515698
5.2311044
4.5591471
3.4309572
2.2177407
1.2494274
0.64092327
0.30922545
0.1422677
0.062344829
0.025709613
0.0097517062
0.0032781197
0.00092854124
0.00024899555
0.00028909808
0.0020259111
0.16227114
0.20344238
0.35227638
0.76337434
1.4374492
2.1539522
2.5848926
2.5412331
2.1645838
1.7165133
1.8130742
2.8301485
4.187193
5.1385296
5.2145931
4.5414258
3.4149968
2.2056196
1.241921
0.63689431
0.30724608
0.14135159
0.061942855
0.025543901
0.0096889084
0.003257059
0.00092266592
0.00024767478
0.00028834937
0.0020212192
0.16272102
0.20352083
0.35089928
0.7591267
1.4308983
2.1468691
2.5788744
2.5369057
2.1610703
1.7129879
1.8091803
2.8246461
4.1788666
5.1255094
5.1981168
4.5237604
3.3991053
2.1935661
1.2344634
0.63289353
0.30528096
0.14044213
0.061543802
0.02537939
0.0096265646
0.0032361498
0.00091683253
0.00024636253
0.00028760236
0.0020165333
0.16316537
0.20359646
0.34953212
0.75489553
1.4243593
2.1397877
2.5728542
2.5325756
2.1575572
1.7094673
1.8052932
2.8191546
4.170555
5.1125075
5.1816759
4.5061502
3.3832826
2.1815803
1.2270546
0.62892085
0.30333007
0.13953931
0.061147672
0.025216085
0.0095646781
0.0032153938
0.00091104158
0.00024505923
0.00028685836
0.0020118631
0.16360405
0.20366908
0.3481746
0.75068064
1.4178323
2.132708
2.5668322
2.5282429
2.1540444
1.7059514
1.8014128
2.8136738
4.1622585
5.0995236
5.1652678
4.4885951
3.3675283
2.1696615
1.2196937
0.62497568
0.30139304
0.13864296
0.060754375
0.025053945
0.0095032317
0.0031947849
0.0009052914
0.00024376459
0.00028611735
0.0020072088
0.16403691
0.20373852
0.34682645
0.74648193
1.411317
2.1256298
2.5608084
2.5239076
2.1505317
1.70244
1.7975385
2.8082032
4.153977
5.086558
5.1488926
4.4710946
3.3518419
2.1578092
1.2123808
0.62105841
0.29947016
0.13775325
0.060364007
0.024893014
0.0094422438
0.0031743299
0.00089958393
0.00024247889
0.0002853789
0.002002567
0.16446382
0.20380462
0.34548743
0.74229928
1.4048133
2.118553
2.5547827
2.5195699
2.1470191
1.6989327
1.7936702
2.802742
4.1457095
5.0736102
5.1325516
4.4536474
3.3362216
2.1460218
1.2051145
0.61716789
0.29756078
0.13686982
0.059976399
0.024733218
0.0093816845
0.0031540183
0.00089391617
0.00024120136
0.00028464234
0.0019979332
0.16488465
0.20386723
0.3441573
0.73813256
1.3983212
2.1114776
2.5487554
2.5152295
2.1435065
1.6954296
1.7898077
2.7972899
4.1374547
5.0606782
5.1162422
4.4362539
3.3206687
2.1343007
1.1978958
0.61330479
0.29566528
0.13599289
0.059591653
0.024574604
0.0093215733
0.0031338567
0.00088829013
0.00023993272
0.0002839091
0.0019933178
0.16529926
0.2039262
0.34283579
0.7339817
1.3918406
2.1044034
2.5427263
2.5108864
2.1399938
1.6919303
1.7859509
2.7918468
4.1292132
5.0477627
5.0999637
4.4189136
3.3051821
2.1226443
1.1907233
0.60946818
0.29378311
0.13512218
0.059209631
0.024417111
0.0092618858
0.0031138366
0.0008827032
0.00023867226
0.00028317844
0.0019887154
0.16570753
0.20398138
0.34152265
0.72984656
1.3853713
2.0973303
2.5366954
2.5065405
2.1364808
1.6884348
1.7820995
2.7864119
4.1209848
5.0348641
5.0837183
4.4016254
3.2897604
2.1110515
1.1835967
0.60565816
0.29191443
0.13425779
0.058830399
0.024260769
0.0092026356
0.0030939634
0.00087715709
0.00023742039
0.00028245036
0.0019841258
0.16610935
0.20403263
0.34021763
0.72572713
1.3789133
2.0902583
2.530663
2.502192
2.1329675
1.6849431
1.7782532
2.7809852
4.1127687
5.0219809
5.0675043
4.3843894
3.2744036
2.0995223
1.1765154
0.60187406
0.2900588
0.13339947
0.058453833
0.024105525
0.0091437998
0.003074229
0.00087164944
0.00023617655
0.0002817245
0.0019795468
0.16650459
0.20407983
0.33892057
0.72162327
1.3724666
2.0831873
2.5246288
2.4978408
2.1294537
1.6814551
1.7744119
2.7755665
4.1045645
5.0091127
5.0513193
4.3672057
3.259113
2.0880579
1.1694805
0.59811664
0.28821668
0.13254749
0.058080054
0.023951431
0.0090853999
0.0030546407
0.00086618242
0.00023494139
0.00028100185
0.0019749858
0.16689315
0.20412286
0.33763121
0.71753492
1.366031
2.0761171
2.5185931
2.4934866
2.1259396
1.6779709
1.7705755
2.7701553
4.0963725
4.9962606
5.0351664
4.3500727
3.243885
2.0766545
1.1624891
0.59438415
0.2863871
0.13170133
0.057708835
0.02379839
0.0090273978
0.0030351851
0.00086075215
0.00023371386
0.00028028142
0.0019704355
0.16727492
0.20416161
0.33634932
0.71346198
1.3596066
2.0690477
2.5125559
2.4891296
2.1224249
1.6744903
1.7667438
2.7647514
4.0881927
4.9834237
5.0190445
4.3329899
3.2287198
2.0653125
1.1555418
0.59067718
0.28457046
0.13086125
0.057340297
0.023646459
0.0089698176
0.0030158712
0.00085536123
0.00023249467
0.00027956389
0.0019659005
0.16764979
0.20419596
0.33507467
0.70940439
1.3531932
2.061979
2.506517
2.4847698
2.1189095
1.6710132
1.7629166
2.7593546
4.0800245
4.9706012
5.0029504
4.3159579
3.2136182
2.0540327
1.1486385
0.58699535
0.28276647
0.13002707
0.056974348
0.023495592
0.0089126406
0.0029966924
0.00085000778
0.0002312833
0.00027884846
0.0019613753
0.16801767
0.20422579
0.3338071
0.70536209
1.3467907
2.0549109
2.5004769
2.4804072
2.1153933
1.6675394
1.7590936
2.7539645
4.071867
4.9577929
4.9868865
4.2989758
3.1985794
2.0428144
1.1417794
0.58333888
0.28097533
0.12919892
0.056611061
0.023345827
0.0088558813
0.002977654
0.0008446934
0.00023008024
0.00027813587
0.0019568652
0.16837847
0.20425098
0.33254641
0.70133497
1.3403993
2.0478433
2.4944351
2.4760416
2.1118763
1.6640688
1.7552745
2.7485803
4.0637205
4.944999
4.9708527
4.2820418
3.1836004
2.0316542
1.1349616
0.57970605
0.27919606
0.12837628
0.056250189
0.023197054
0.0087994967
0.0029587409
0.00083941377
0.00022888451
0.00027742569
0.0019523678
0.1687321
0.20427142
0.33129239
0.69732302
1.3340188
2.0407761
2.4883921
2.4716729
2.1083582
1.6606012
1.7514591
2.7432018
4.0555848
4.9322183
4.9548458
4.2651572
3.1686835
2.0205547
1.1281872
0.57609824
0.27742947
0.12755959
0.055891948
0.023049372
0.0087435261
0.0029399665
0.00083417275
0.00022769696
0.00027671843
0.0019478864
0.16907847
0.20428702
0.33004484
0.69332615
1.3276492
2.0337091
2.4823476
2.4673013
2.104839
1.6571366
1.7476475
2.7378287
4.047459
4.9194509
4.9388675
4.2483216
3.1538281
2.0095151
1.121455
0.57251444
0.27567494
0.12674852
0.055536169
0.022902701
0.0086879388
0.0029213204
0.00082896716
0.00022651668
0.00027601282
0.0019434115
0.16941752
0.20429768
0.32880356
0.68934432
1.3212905
2.0266422
2.4763019
2.4629267
2.1013185
1.6536749
1.7438393
2.7324608
4.0393431
4.9066967
4.9229185
4.2315338
3.1390328
1.9985344
1.114765
0.56895494
0.27393273
0.12594324
0.055182948
0.022757089
0.0086327545
0.00290281
0.00082379939
0.00022534457
0.00027531044
0.0019389547
0.16974917
0.20430332
0.32756847
0.68537752
1.3149427
2.0195755
2.4702549
2.4585489
2.0977968
1.6502162
1.7400344
2.7270978
4.031238
4.8939559
4.9069966
4.2147936
3.1242966
1.9876107
1.1081155
0.56541847
0.27220206
0.12514331
0.054832069
0.022612439
0.0085779322
0.0028844206
0.00081866521
0.00022417959
0.00027461052
0.0019345112
0.17007336
0.20430386
0.32633941
0.6814257
1.3086057
2.0125087
2.4642066
2.4541679
2.0942737
1.6467604
1.7362324
2.7217392
4.0231432
4.881228
4.891102
4.1981016
3.1096212
1.9767462
1.1015078
0.56190608
0.27048359
0.12434909
0.054483718
0.022468835
0.0085235076
0.0028661648
0.00081356821
0.00022302247
0.00027391315
0.0019300811
0.17039002
0.20429923
0.32511622
0.67748882
1.3022796
2.0054417
2.4581571
2.4497839
2.0907492
1.6433075
1.732433
2.7163847
4.0150579
4.8685132
4.8752362
4.1814566
3.0950046
1.9659388
1.0949404
0.55841655
0.26877658
0.12356022
0.054137709
0.022326196
0.008469448
0.0028480308
0.00080850494
0.0002218723
0.00027321754
0.0019256587
0.1706991
0.20428937
0.32389873
0.67356686
1.2959644
1.9983744
2.4521065
2.4453968
2.0872231
1.6398572
1.7286361
2.7110342
4.0069826
4.8558111
4.8593973
4.1648582
3.0804464
1.9551887
1.088414
0.55495061
0.26708154
0.12277698
0.053794189
0.022184588
0.0084157811
0.0028300289
0.00080347842
0.00022073003
0.00027252513
0.0019212545
0.17100054
0.20427422
0.32268693
0.66965989
1.2896601
1.9913068
2.4460547
2.4410064
2.0836956
1.6364093
1.7248414
2.7056874
3.9989179
4.8431218
4.8435841
4.1483061
3.065946
1.944494
1.0819267
0.55150685
0.2653976
0.12199888
0.053452924
0.022043905
0.0083624636
0.0028121441
0.00079848433
0.00021959458
0.00027183477
0.0019168605
0.17129429
0.20425375
0.32148068
0.66576784
1.2833667
1.9842387
2.4400019
2.4366128
2.0801665
1.6329636
1.7210484
2.700344
3.990863
4.8304446
4.8277988
4.1318003
3.0515038
1.9338559
1.0754792
0.54808597
0.26372524
0.12122621
0.053114057
0.021904216
0.0083095235
0.0027943862
0.00079352567
0.00021846668
0.00027114697
0.00191248
0.17158034
0.20422795
0.32027984
0.66189071
1.2770842
1.9771699
2.433948
2.432216
2.0766358
1.62952
1.7172566
2.6950039
3.9828175
4.8177798
4.8120401
4.1153391
3.0371178
1.9232725
1.0690704
0.54468701
0.26206387
0.12045867
0.052777441
0.021765455
0.0082569343
0.0027767458
0.00078859962
0.00021734559
0.0002704611
0.001908109
0.17185863
0.20419677
0.31908425
0.65802844
1.2708128
1.9701004
2.4278931
2.4278161
2.0731035
1.6260783
1.7134654
2.6896675
3.9747821
4.8051264
4.7963052
4.0989236
3.0227891
1.912745
1.0627015
0.54131098
0.26041413
0.11969659
0.052443242
0.021627695
0.0082047264
0.0027592332
0.00078370916
0.00021623211
0.0002697782
0.0019037546
0.17212916
0.20416016
0.31789382
0.65418105
1.2645523
1.96303
2.421837
2.4234127
2.0695697
1.6226383
1.7096743
2.6843351
3.9667569
4.7924847
4.780597
4.0825529
3.0085164
1.9022709
1.0563699
0.537956
0.25877491
0.11893938
0.052111172
0.021490808
0.0081528485
0.0027418311
0.00077884919
0.00021512496
0.00026909712
0.0018994091
0.17239191
0.20411807
0.3167085
0.65034854
1.2583029
1.9559585
2.4157798
2.4190059
2.0660344
1.6192
1.7058823
2.6790077
3.9587412
4.7798542
4.7649152
4.0662262
2.9942995
1.8918513
1.0500767
0.53462308
0.25714684
0.11818741
0.05178142
0.021354883
0.0081013366
0.0027245523
0.00077402364
0.00021402528
0.00026841909
0.0018950807
0.17264684
0.20407048
0.31552819
0.64653086
1.2520647
1.9488858
2.4097214
2.4145959
2.0624977
1.6157632
1.7020884
2.6736875
3.9507351
4.7672348
4.7492566
4.0499436
2.980138
1.8814855
1.0438214
0.53131168
0.25552958
0.11744048
0.051453879
0.021219868
0.0080501687
0.0027073888
0.00076923016
0.00021293232
0.00026774295
0.0018907615
0.17289395
0.20401739
0.31435281
0.64272806
1.2458376
1.9418117
2.4036618
2.4101825
2.0589598
1.6123279
1.6982907
2.6683773
3.9427382
4.7546254
4.7336227
4.0337054
2.9660324
1.8711738
1.0376046
0.52802225
0.25392344
0.11669877
0.051128651
0.021085813
0.0079993655
0.0026903478
0.00076447081
0.0002118466
0.00026706925
0.0018864555
0.17313324
0.20395879
0.31318224
0.63894015
1.2396218
1.9347361
2.397601
2.4057656
2.0554208
1.6088942
1.6944919
2.6630738
3.934749
4.742026
4.7180142
4.01751
2.9519808
1.8609136
1.0314236
0.52475307
0.2523274
0.11596174
0.050805468
0.020952597
0.0079488799
0.0026734128
0.00075974082
0.00021076711
0.0002663978
0.0018821615
0.17336472
0.20389468
0.31201646
0.63516717
1.2334174
1.9276589
2.3915389
2.4013452
2.0518808
1.6054622
1.6906946
2.6577727
3.9267656
4.7294359
4.7024284
4.0013573
2.9379837
1.8507069
1.0252803
0.52150549
0.2507423
0.11522985
0.050484563
0.020820325
0.0078987542
0.0026565989
0.00075504455
0.00020969486
0.00026572932
0.0018778845
0.17358838
0.20382508
0.31085545
0.63140916
1.2272246
1.9205799
2.3854753
2.3969215
2.0483401
1.6020321
1.6868989
2.6524739
3.9187879
4.7168543
4.6868652
3.9852475
2.9240407
1.8405525
1.0191737
0.51827869
0.24916762
0.11450281
0.050165783
0.020688929
0.0078489594
0.002639896
0.000750379
0.00020862893
0.00026506225
0.0018736131
0.17380425
0.20375
0.30969918
0.62766612
1.2210433
1.913499
2.3794101
2.3924943
2.0447986
1.5986037
1.6831046
2.6471767
3.9108155
4.7042806
4.6713259
3.9691804
2.9101518
1.83045
1.0131038
0.51507284
0.24760353
0.11378074
0.049849205
0.020558445
0.0077995114
0.0026233099
0.00074574604
0.00020757004
0.00026439784
0.0018693565
0.17401235
0.20366948
0.30854757
0.62393811
1.2148738
1.906416
2.3733432
2.3880636
2.0412565
1.5951772
1.6793115
2.6418805
3.9028479
4.691715
4.6558091
3.9531539
2.8963151
1.8203977
1.0070688
0.51188666
0.24604925
0.11306323
0.04953462
0.020428781
0.0077503729
0.0026068272
0.00074114189
0.00020651737
0.00026373602
0.0018651147
0.1742127
0.20358355
0.30740059
0.62022515
1.2087162
1.8993309
2.3672742
2.3836293
2.0377139
1.5917524
1.6755194
2.636585
3.8948837
4.6791566
4.6403126
3.9371694
2.8825319
1.8103978
1.0010706
0.50872155
0.24450563
0.11235071
0.049222247
0.020300033
0.0077015833
0.0025904616
0.00073657032
0.00020547165
0.00026307678
0.0018608873
0.17440534
0.20349225
0.30625824
0.61652735
1.2025708
1.8922436
2.361203
2.3791917
2.0341708
1.5883296
1.6717282
2.6312896
3.8869226
4.6666042
4.6248387
3.9212265
2.8688012
1.8004482
0.9951076
0.50557627
0.24297193
0.11164281
0.048911897
0.020172117
0.0076531084
0.0025742012
0.00073202777
0.0002044318
0.00026241866
0.0018566637
0.17459031
0.20339562
0.30512054
0.61284474
1.1964377
1.8851539
2.3551294
2.3747506
2.0306274
1.5849087
1.6679378
2.6259935
3.8789639
4.6540575
4.6093868
3.9053241
2.8551229
1.790549
0.98918009
0.50245121
0.24144845
0.1109397
0.048603664
0.020045078
0.0076049674
0.0025580532
0.00072751657
0.00020339878
0.0002617636
0.001852458
0.17476766
0.20329372
0.30398749
0.60917737
1.1903171
1.8780616
2.3490529
2.370306
2.0270838
1.58149
1.6641482
2.6206966
3.8710071
4.6415169
4.5939539
3.8894615
2.8414957
1.7806991
0.98328678
0.49934543
0.23993459
0.11024107
0.048297398
0.019918849
0.0075571322
0.0025420079
0.00072303393
0.00020237195
0.00026111099
0.001848266
0.17493743
0.20318659
0.30285903
0.60552526
1.1842095
1.8709668
2.3429734
2.3658579
2.02354
1.5780734
1.6603593
2.6153982
3.8630509
4.6289809
4.5785417
3.8736397
2.8279203
1.7708996
0.9774287
0.49625973
0.23843087
0.10954719
0.047993226
0.019793488
0.0075096269
0.0025260734
0.0007185822
0.00020135165
0.00026046038
0.0018440842
0.17509969
0.20307427
0.30173515
0.60188844
1.1781148
1.8638697
2.3368904
2.3614066
2.0199963
1.574659
1.6565708
2.6100976
3.8550943
4.6164485
4.5631506
3.8578578
2.814396
1.7611485
0.9716044
0.49319305
0.23693665
0.10885772
0.047690992
0.019668923
0.0074624227
0.0025102392
0.00071415825
0.00020033711
0.00025981137
0.0018399101
0.17525449
0.2029568
0.30061588
0.59826701
1.1720302
1.8567756
2.3308038
2.3569518
2.0164527
1.5712469
1.6527826
2.6047938
3.8471361
4.6039195
4.5477779
3.8421151
2.8009232
1.7514473
0.96581505
0.49014626
0.23545249
0.10817297
0.047390846
0.019545223
0.0074155482
0.002494516
0.00070976518
0.00019932933
0.00025916564
0.0018357556
0.17540192
0.20283427
0.29950127
0.59466108
1.1659562
1.8496835
2.3247133
2.3524935
2.0129094
1.5678371
1.6489945
2.5994862
3.8391747
4.5913934
4.5324238
3.8264118
2.7875005
1.7417942
0.96005889
0.4871181
0.23397762
0.10749254
0.04709259
0.019422301
0.0073689674
0.0024788911
0.00070539935
0.00019832729
0.00025852187
0.0018316115
0.17554204
0.20270672
0.29839135
0.59107081
1.1598927
1.8425932
2.3186189
2.348032
2.0093664
1.5644295
1.6452065
2.594174
3.8312082
4.5788681
4.5170895
3.8107485
2.7741287
1.73219
0.95433681
0.48410928
0.23251246
0.10681665
0.046796342
0.01930021
0.0073227019
0.0024633724
0.00070106309
0.00019733156
0.00025788023
0.0018274787
0.17567493
0.20257425
0.29728609
0.58749636
1.1538399
1.8355047
2.3125206
2.3435673
2.0058239
1.5610243
1.6414186
2.5888565
3.8232354
4.5663437
4.5017738
3.7951239
2.7608076
1.7226338
0.94864803
0.48111917
0.23105665
0.10614509
0.046501989
0.019178898
0.0072767306
0.002447952
0.00069675418
0.00019634166
0.0002572406
0.0018233566
0.17580068
0.20243692
0.29618551
0.58393785
1.1477979
1.828418
2.3064181
2.3390992
2.002282
1.5576214
1.6376307
2.5835328
3.8152544
4.5538199
4.4864748
3.7795386
2.7475374
1.7131267
0.94299349
0.4781485
0.22961065
0.10547815
0.046209678
0.019058431
0.0072310811
0.0024326395
0.00069247535
0.00019535831
0.00025660387
0.0018192515
0.17591938
0.20229483
0.29508967
0.5803955
1.1417668
1.8213328
2.3003115
2.3346278
1.9987406
1.5542207
1.6338425
2.5782023
3.8072627
4.5412958
4.4711948
3.7639918
2.7343158
1.7036659
0.93737061
0.47519549
0.22817342
0.10481526
0.045919135
0.01893869
0.0071857059
0.0024174186
0.00068822181
0.00019438014
0.00025596844
0.0018151523
0.17603111
0.20214806
0.29399868
0.57686943
1.1357466
1.8142493
2.2942005
2.3301534
1.9952001
1.5508224
1.6300542
2.5728644
3.7992575
4.52877
4.4559333
3.7484837
2.7211439
1.6942524
0.93178048
0.472261
0.2267455
0.10415672
0.045630516
0.018819744
0.0071406328
0.0024022992
0.00068399645
0.00019340802
0.00025533548
0.0018110672
0.17613598
0.20199674
0.29291257
0.57335985
1.1297376
1.8071672
2.288085
2.3256756
1.9916603
1.5474265
1.6262657
2.5675184
3.7912363
4.5162434
4.4406881
3.7330137
2.7080217
1.6848857
0.92622281
0.46934474
0.22532666
0.1035024
0.045343746
0.018701559
0.0070958465
0.0023872759
0.00067979774
0.00019244154
0.00025470442
0.0018069918
0.1762341
0.20184097
0.29183137
0.5698669
1.1237397
1.8000866
2.281965
2.3211946
1.9881215
1.5440331
1.6224769
2.5621633
3.7831953
4.5037155
4.4254606
3.7175822
2.6949484
1.6755661
0.92069775
0.46644694
0.22391714
0.10285245
0.045058905
0.018584176
0.007051365
0.0023723553
0.00067562777
0.00019148129
0.0002540757
0.0018029294
0.17632557
0.20168086
0.29075509
0.56639074
1.1177532
1.7930073
2.2758401
2.3167104
1.9845837
1.5406423
1.618688
2.556799
3.77513
4.4911861
4.410252
3.7021884
2.681922
1.6662906
0.91520263
0.46356573
0.22251581
0.10220628
0.044775713
0.018467465
0.0070071373
0.0023575191
0.00067148116
0.00019052593
0.00025344847
0.0017988744
0.17641051
0.20151652
0.28968381
0.56293162
1.1117782
1.7859295
2.2697104
2.3122232
1.9810468
1.5372539
1.6148989
2.5514252
3.7670354
4.4786559
4.3950606
3.6868323
2.6689446
1.6570612
0.90973935
0.46070251
0.22112354
0.10156435
0.044494388
0.018351527
0.0069632037
0.0023427815
0.00066736204
0.00018957656
0.00025282401
0.001794836
0.17648904
0.20134805
0.28861763
0.55948966
1.1058149
1.7788529
2.2635757
2.3077325
1.9775112
1.5338681
1.6111096
2.5460416
3.7589055
4.4661274
4.3798865
3.6715141
2.656015
1.6478769
0.90430716
0.45785673
0.21973995
0.10092644
0.044214835
0.018236318
0.0069195459
0.0023281364
0.00066326841
0.00018863244
0.00025220093
0.0017908036
0.17656128
0.20117555
0.28755662
0.55606507
1.0998634
1.7717776
2.2574357
2.3032388
1.9739767
1.5304847
1.6073201
2.5406482
3.750733
4.4536018
4.3647314
3.6562334
2.643132
1.6387372
0.89890581
0.45502836
0.21836512
0.10029265
0.0439371
0.018121865
0.0068761751
0.0023135879
0.00065920171
0.00018769404
0.00025157978
0.0017867813
0.17662735
0.20099913
0.28650081
0.55265801
1.0939238
1.7647035
2.2512904
2.2987419
1.9704435
1.5271039
1.6035303
2.5352465
3.742516
4.4410807
4.3495947
3.6409888
2.6302943
1.6296399
0.8935331
0.45221582
0.21699812
0.099662462
0.043660934
0.018008053
0.0068330461
0.0022991204
0.00065515756
0.00018676054
0.00025096061
0.0017827701
0.17668738
0.2008189
0.28545023
0.54926864
1.0879963
1.7576306
2.2451395
2.2942416
1.9669116
1.5237255
1.5997403
2.529842
3.7342958
4.4285632
4.3344751
3.625781
2.6175038
1.6205869
0.88819103
0.44942063
0.21563986
0.099036372
0.04338658
0.017894993
0.0067902031
0.0022847489
0.00065114031
0.00018583299
0.00025034424
0.0017787755
0.17674149
0.20063499
0.28440493
0.54589722
1.0820812
1.7505589
2.2389829
2.289738
1.9633812
1.5203496
1.5959497
2.524434
3.7260718
4.4160488
4.3193743
3.6106091
2.6047581
1.6115764
0.88287826
0.44664184
0.21428976
0.098414075
0.043113889
0.017782616
0.0067476192
0.002270464
0.00064714702
0.00018491029
0.00024972867
0.0017747826
0.17678983
0.2004475
0.28336502
0.54254387
1.0761787
1.7434884
2.2328205
2.2852313
1.9598522
1.5169762
1.5921583
2.5190218
3.717843
4.4035355
4.3042912
3.5954722
2.5920564
1.6026083
0.87759478
0.44387958
0.21294797
0.097795671
0.042842923
0.017670955
0.006705308
0.002256271
0.00064317927
0.00018399306
0.00024911529
0.001770802
0.17683253
0.20025658
0.28233061
0.53920886
1.070289
1.7364191
2.2266521
2.2807213
1.9563248
1.5136051
1.5883658
2.513605
3.7096089
4.3910233
4.289223
3.5803683
2.5793979
1.5936808
0.87233882
0.44113256
0.21161373
0.097180745
0.042573474
0.017559916
0.0066632308
0.0022421562
0.00063923324
0.0001830806
0.00024850423
0.001766835
0.17686974
0.20006236
0.28130175
0.53589234
1.0644122
1.7293511
2.2204775
2.2762077
1.952799
1.5102364
1.5845719
2.5081827
3.7013683
4.3785115
4.2741701
3.5652985
2.5667834
1.5847951
0.86711178
0.43840194
0.21028777
0.096569715
0.042305749
0.017449594
0.0066214268
0.0022281338
0.0006353131
0.00018217383
0.00024789566
0.0017628819
0.1769016
0.19986524
0.28027846
0.53259448
1.0585487
1.7222843
2.2142966
2.2716908
1.9492749
1.5068701
1.5807763
2.5027544
3.6931207
4.3659987
4.2591328
3.5502612
2.5542104
1.5759492
0.86191227
0.43568671
0.20896947
0.095962241
0.042039585
0.017339914
0.0065798659
0.0022141928
0.00063141567
0.00018127172
0.00024728778
0.0017589297
0.17692824
0.19966536
0.2792608
0.52931555
1.0526987
1.7152189
2.2081093
2.2671705
1.9457525
1.5035061
1.5769786
2.4973193
3.684865
4.3534835
4.2441084
3.5352553
2.5416792
1.5671441
0.856741
0.43298743
0.20765918
0.095358519
0.041775078
0.017230921
0.0065385672
0.0022003399
0.00062754288
0.00018037505
0.00024668242
0.0017549919
0.17694983
0.19946285
0.27824886
0.52605567
1.0468624
1.7081549
2.2019155
2.2626465
1.9422318
1.5001445
1.5731788
2.491877
3.6766006
4.3409661
4.2290954
3.5202798
2.5291888
1.5583776
0.85159597
0.43030272
0.20635612
0.094758137
0.041512034
0.017122527
0.0064974954
0.0021865629
0.00062369119
0.00017948301
0.00024607931
0.0017510668
0.1769665
0.19925785
0.27724273
0.52281513
1.0410402
1.7010923
2.195715
2.2581191
1.9387128
1.4967853
1.5693763
2.4864266
3.6683265
4.3284451
4.2140949
3.5053342
2.5167383
1.5496496
0.8464778
0.42763327
0.20506078
0.09416139
0.041250604
0.017014807
0.0064566801
0.0021728727
0.00061986376
0.00017859622
0.0002454783
0.0017471526
0.17697842
0.19905049
0.27624252
0.51959405
1.0352323
1.6940313
2.1895077
2.2535882
1.9351954
1.4934283
1.565571
2.4809677
3.660042
4.315919
4.1991053
3.4904172
2.5043258
1.5409588
0.84138537
0.42497823
0.20377261
0.093567976
0.040990633
0.016907688
0.0064160922
0.002159259
0.00061605759
0.00017771381
0.00024487814
0.0017432403
0.17698573
0.1988409
0.27524824
0.51639264
1.029439
1.6869719
2.1832935
2.2490535
1.9316798
1.4900735
1.5617623
2.4754993
3.6517462
4.303387
4.1841236
3.4755275
2.4919524
1.5323066