/*--------------------------------*- C++ -*----------------------------------*\
| =========                 |                                                 |
| \\      /  F ield         | OpenFOAM: The Open Source CFD Toolbox           |
|  \\    /   O peration     | Version:  v2012                                 |
|   \\  /    A nd           | Website:  www.openfoam.com                      |
|    \\/     M anipulation  |                                                 |
\*---------------------------------------------------------------------------*/
FoamFile
{
    version     2.0;
    format      ascii;
    class       volScalarField;
    location    "900";
    object      Ma;
}
// * * * * * * * * * * * * * * * * * * * * * * * * * * * * * * * * * * * * * //

dimensions      [0 0 0 0 0 0 0];


internalField   nonuniform List<scalar> 
24000
(
0.045942624
0.046351028
0.047541327
0.049236888
0.04979262
0.048579097
0.046471481
0.044238373
0.042101061
0.039719641
0.036590525
0.032962307
0.029450028
0.0261159
0.022772993
0.019454299
0.016346078
0.013540177
0.011074808
0.0089673064
0.0072013058
0.0057331229
0.0045145002
0.0035024526
0.0026611585
0.0019612418
0.0013786182
0.00089347002
0.00048943419
0.00015295975
0.045922023
0.046329882
0.047517072
0.049214159
0.049777729
0.048566921
0.046456128
0.044217942
0.042076746
0.039693021
0.036562579
0.032933947
0.02942093
0.026085463
0.022741201
0.019421583
0.016313155
0.013507472
0.01104282
0.0089366179
0.0071725136
0.0057068316
0.0044912352
0.0034825678
0.0026448054
0.0019483897
0.0013690986
0.00088702931
0.00048577486
0.00015177371
0.045904491
0.046309017
0.047487485
0.049181302
0.049750896
0.048544783
0.046434186
0.044194583
0.042052849
0.039669293
0.036539189
0.03291146
0.029399063
0.026063597
0.022719112
0.019400246
0.016294202
0.013491856
0.011031111
0.0089288735
0.0071681514
0.0057050055
0.0044910976
0.00348341
0.0026460965
0.0019497621
0.0013703189
0.00088796289
0.00048635463
0.00015197681
0.045885969
0.046287805
0.047459144
0.049151382
0.04972757
0.048525623
0.046414106
0.044171859
0.042028329
0.039643952
0.03651353
0.032886269
0.02937433
0.026038478
0.022693767
0.019376173
0.016272603
0.013473188
0.011015483
0.008916078
0.0071577687
0.0056966164
0.0044843689
0.0034780871
0.0026419743
0.001946671
0.0013681122
0.00088651254
0.00048554998
0.00015172178
0.045867347
0.046266532
0.047430912
0.049121582
0.049704442
0.048506522
0.04639395
0.044148919
0.042003504
0.039618259
0.036487486
0.032860755
0.029349499
0.026013382
0.022668479
0.019352371
0.016251352
0.013454942
0.011000391
0.0089040136
0.0071483184
0.0056892991
0.00447876
0.0034738402
0.0026388158
0.0019443856
0.0013665309
0.00088550127
0.00048500255
0.00015155263
0.045848592
0.04624524
0.047402886
0.049092159
0.04968171
0.048487771
0.046374016
0.044126051
0.041978621
0.039592379
0.036461149
0.032834903
0.029324307
0.025987914
0.022642816
0.01932815
0.016229671
0.013436239
0.010984821
0.0088914573
0.0071383626
0.0056814869
0.004472689
0.0034691818
0.0026353086
0.0019418199
0.0013647381
0.00088434531
0.00048437171
0.00015135612
0.045829776
0.04622396
0.047375003
0.049062841
0.049659143
0.048469143
0.046354157
0.044103226
0.041953709
0.039566393
0.036434642
0.032808863
0.029298917
0.025962251
0.022616947
0.019303729
0.016207786
0.013417343
0.010969093
0.0088787661
0.0071283006
0.0056735965
0.0044665615
0.0034644848
0.0026317756
0.0019392377
0.0013629355
0.00088318362
0.0004837382
0.00015115903
0.045810927
0.046202701
0.047347192
0.049033634
0.049636678
0.048450648
0.046334408
0.04408047
0.041928794
0.039540337
0.036408029
0.032782676
0.029273399
0.025936443
0.022590919
0.019279159
0.016185747
0.013398305
0.010953227
0.0088659506
0.0071181325
0.0056656119
0.0044603538
0.0034597209
0.0026281893
0.0019366148
0.0013611032
0.00088200217
0.00048309372
0.00015095841
0.045792061
0.046181466
0.047319481
0.049004447
0.049614266
0.048432201
0.046314736
0.044057789
0.041903882
0.03951422
0.036381327
0.032756398
0.029247775
0.025910533
0.022564812
0.019254484
0.016163614
0.013379181
0.010937278
0.0088530603
0.0071078999
0.0056575739
0.0044541017
0.0034549219
0.0026245743
0.0019339703
0.0013592556
0.00088081047
0.0004824437
0.000150756
0.045773188
0.046160253
0.04729182
0.048975283
0.049591879
0.048413836
0.046295104
0.044035171
0.041878978
0.03948805
0.036354561
0.032730049
0.029222076
0.025884567
0.022538642
0.019229757
0.016141429
0.013360003
0.010921284
0.0088401314
0.0070976271
0.0056495006
0.0044478208
0.0034500984
0.0026209411
0.0019313109
0.0013573971
0.00087961174
0.00048178973
0.00015055233
0.04575431
0.046139055
0.047264227
0.048946125
0.049569504
0.04839549
0.046275568
0.044012609
0.041854083
0.039461831
0.036327737
0.032703659
0.029196342
0.025858562
0.02251243
0.019205009
0.01611922
0.013340803
0.010905276
0.0088271856
0.0070873379
0.0056414118
0.004441525
0.003445263
0.0026172974
0.0019286441
0.0013555328
0.00087840927
0.00048113346
0.00015034796
0.04573543
0.046117864
0.047236646
0.048916943
0.049547127
0.048377206
0.046256068
0.043990104
0.041829198
0.039435562
0.036300864
0.032677225
0.029170582
0.025832527
0.022486219
0.019180242
0.016097
0.013321602
0.010889256
0.0088142274
0.0070770398
0.0056333119
0.0044352192
0.0034404179
0.0026136464
0.0019259712
0.0013536644
0.00087720387
0.00048047551
0.00015014306
0.045716548
0.046096679
0.047209128
0.048887777
0.049524746
0.048358933
0.046236607
0.043967664
0.041804325
0.039409244
0.036273968
0.032650773
0.029144796
0.025806492
0.022460002
0.019155482
0.016074791
0.013302406
0.010873242
0.008801274
0.0070667442
0.0056252146
0.0044289134
0.0034355731
0.0026099945
0.0019232982
0.0013517957
0.00087599812
0.00047981747
0.00014993812
0.045697665
0.046075513
0.047181635
0.04885856
0.049502353
0.048340713
0.046217227
0.043945309
0.041779467
0.039382877
0.036247043
0.032624302
0.029118994
0.025780455
0.022433787
0.019130747
0.016052603
0.013283228
0.010857253
0.0087883398
0.0070564574
0.0056171227
0.0044226126
0.0034307305
0.0026063438
0.001920625
0.0013499268
0.00087479207
0.00047915937
0.00014973311
0.04567878
0.046054363
0.047154196
0.048829359
0.049479949
0.048322501
0.046197869
0.043923031
0.041754626
0.039356461
0.036220099
0.03259783
0.029093208
0.02575442
0.0224076
0.019106026
0.016030435
0.013264083
0.010841287
0.0087754235
0.0070461849
0.0056090407
0.0044163175
0.0034258924
0.0026026964
0.0019179538
0.0013480589
0.00087358691
0.00047850159
0.00014952819
0.045659893
0.046033227
0.047126761
0.048800109
0.049457528
0.048304337
0.046178568
0.043900821
0.041729804
0.039329995
0.03619313
0.032571344
0.029067415
0.025728397
0.022381428
0.019081329
0.016008298
0.013244962
0.010825341
0.0087625241
0.0070359291
0.0056009693
0.0044100311
0.0034210602
0.0025990535
0.0019152861
0.0013461934
0.0008723831
0.00047784438
0.00014932348
0.045641
0.046012105
0.047099377
0.048770865
0.04943509
0.04828618
0.04615932
0.043878684
0.041705002
0.039303472
0.036166143
0.032544861
0.029041617
0.025702385
0.022355269
0.01905667
0.015986194
0.013225869
0.010809424
0.0087496482
0.0070256911
0.0055929137
0.0044037544
0.0034162356
0.0025954161
0.0019126225
0.0013443308
0.0008711812
0.00047718824
0.0001491191
0.0456221
0.045990996
0.047072015
0.048741579
0.049412634
0.048268069
0.046140088
0.043856632
0.041680224
0.039276882
0.036139159
0.032518376
0.029015826
0.025676388
0.022329147
0.019032035
0.015964119
0.013206811
0.010793543
0.0087367995
0.0070154684
0.0055848691
0.0043974877
0.0034114177
0.0025917824
0.0019099616
0.0013424701
0.00086998026
0.00047653272
0.00014891489
0.045603193
0.045969899
0.047044702
0.048712281
0.049390157
0.048249966
0.046120937
0.043834688
0.041655476
0.039250218
0.036112172
0.032491904
0.028990056
0.025650408
0.022303053
0.019007435
0.015942086
0.013187796
0.010777693
0.0087239792
0.0070052705
0.0055768433
0.004391235
0.0034066107
0.0025881581
0.0019073067
0.0013406136
0.000868782
0.00047587876
0.00014871113
0.045584282
0.045948812
0.047017399
0.048682964
0.049367662
0.048231907
0.046101809
0.043812842
0.041630763
0.039223466
0.036085193
0.032465433
0.028964289
0.025624449
0.022276979
0.018982879
0.015920092
0.013168815
0.010761874
0.0087111839
0.0069950953
0.0055688327
0.004384994
0.0034018125
0.0025845395
0.0019046563
0.0013387597
0.00086758571
0.00047522564
0.00014850763
0.045565366
0.045927734
0.046990135
0.048653608
0.049345141
0.048213856
0.04608271
0.043791046
0.041606076
0.039196681
0.036058219
0.032438977
0.028938528
0.025598515
0.022250948
0.018958359
0.015898138
0.013149872
0.010746095
0.0086984188
0.0069849425
0.005560841
0.0043787652
0.0033970228
0.0025809278
0.0019020106
0.0013369094
0.00086639151
0.00047457354
0.00014830449
0.045546445
0.045906663
0.046962895
0.048624254
0.0493226
0.048195847
0.046063673
0.043769265
0.041581407
0.039169911
0.036031255
0.032412528
0.028912795
0.0255726
0.022224954
0.018933879
0.01587623
0.013130979
0.010730358
0.00868569
0.0069748133
0.0055528679
0.0043725517
0.0033922449
0.0025773239
0.0018993712
0.0013350633
0.00086520001
0.00047392304
0.00014810183
0.045527517
0.045885589
0.046935698
0.048594846
0.049300032
0.048177843
0.046044644
0.043747518
0.041556755
0.039143156
0.036004317
0.032386101
0.028887077
0.025546716
0.022198985
0.018909447
0.015854369
0.01311213
0.010714659
0.0086729943
0.0069647135
0.005544917
0.0043663562
0.0033874807
0.0025737306
0.0018967391
0.0013332226
0.00086401181
0.00047327447
0.00014789976
0.04550858
0.045864511
0.046908521
0.048565442
0.049277441
0.048159883
0.046025674
0.043725812
0.041532122
0.039116427
0.035977393
0.032359679
0.028861365
0.025520852
0.022173054
0.018885051
0.015832547
0.013093315
0.010698991
0.008660324
0.0069546355
0.0055369808
0.0043601705
0.0033827235
0.0025701422
0.0018941098
0.0013313836
0.00086282464
0.00047262648
0.00014769784
0.045489627
0.045843439
0.04688137
0.048535993
0.049254823
0.048141927
0.046006736
0.043704123
0.041507506
0.039089719
0.035950485
0.032333272
0.028835662
0.025495007
0.022147161
0.018860693
0.015810765
0.013074546
0.010683369
0.0086476866
0.0069445833
0.0055290659
0.0043540008
0.0033779784
0.0025665632
0.0018914879
0.0013295492
0.00086164083
0.00047198007
0.00014749642
0.045470667
0.045822378
0.046854251
0.048506541
0.04923218
0.048124015
0.045987817
0.04368245
0.041482909
0.039063027
0.035923587
0.032306873
0.028809993
0.025469192
0.022121294
0.018836381
0.01578903
0.013055822
0.010667783
0.008635085
0.0069345549
0.0055211711
0.0043478464
0.0033732451
0.0025629932
0.0018888726
0.0013277199
0.00086046011
0.00047133527
0.00014729555
0.045451702
0.045801327
0.04682717
0.048477054
0.049209511
0.048106109
0.04596897
0.043660798
0.04145833
0.039036351
0.035896699
0.032280496
0.028784331
0.025443398
0.022095462
0.018812108
0.015767338
0.013037135
0.010652232
0.0086225117
0.0069245512
0.005513294
0.0043417074
0.0033685233
0.0025594306
0.0018862631
0.0013258946
0.00085928184
0.00047069196
0.00014709512
0.045432731
0.045780287
0.046800126
0.048447547
0.049186812
0.048088244
0.045950133
0.043639195
0.041433772
0.039009692
0.035869841
0.032254128
0.028758678
0.025417628
0.022069672
0.018787871
0.015745681
0.013018485
0.010636713
0.0086099638
0.0069145693
0.0055054322
0.004335578
0.0033638085
0.0025558738
0.0018836569
0.0013240716
0.0008581049
0.00047004948
0.00014689492
0.045413756
0.045759255
0.046773093
0.048418029
0.04916409
0.048070389
0.04593135
0.04361762
0.041409234
0.038983051
0.035843002
0.03222778
0.028733046
0.025391885
0.022043912
0.018763683
0.015724079
0.01299989
0.010621246
0.0085974542
0.0069046178
0.0054975945
0.0043294681
0.0033591087
0.002552328
0.0018810587
0.001322254
0.00085693159
0.00046940899
0.00014669532
0.045394775
0.045738234
0.0467461
0.048388465
0.049141334
0.048052571
0.045912607
0.043596061
0.041384715
0.038956427
0.035816183
0.03220144
0.028707441
0.025366167
0.022018184
0.018739539
0.01570252
0.012981335
0.010605813
0.008584979
0.0068946891
0.0054897765
0.0043233718
0.003354419
0.0025487905
0.0018784666
0.0013204405
0.00085576102
0.00046876976
0.00014649613
0.045375788
0.045717222
0.046719139
0.048358903
0.049118556
0.048034766
0.045893881
0.04357452
0.041360217
0.03892982
0.035789376
0.032175126
0.028681844
0.025340476
0.021992502
0.018715429
0.015680999
0.012962817
0.010590414
0.0085725319
0.0068847846
0.0054819756
0.0043172902
0.0033497402
0.0025452603
0.0018758802
0.001318631
0.00085459299
0.00046813183
0.00014629738
0.045356795
0.045696219
0.046692226
0.0483293
0.049095742
0.048016993
0.045875232
0.043553022
0.041335739
0.03890324
0.035762583
0.032148821
0.028656256
0.025314803
0.021966846
0.018691362
0.015659524
0.012944343
0.010575054
0.0085601135
0.0068749045
0.0054741931
0.0043112216
0.0033450711
0.0025417367
0.0018732986
0.001316825
0.00085342695
0.00046749516
0.00014609901
0.045337797
0.045675222
0.046665318
0.04829969
0.049072902
0.04799924
0.045856592
0.043531564
0.041311282
0.038876685
0.03573582
0.032122535
0.028630697
0.025289162
0.021941219
0.018667344
0.015638097
0.01292592
0.010559741
0.0085477328
0.0068650551
0.0054664335
0.0043051716
0.0033404166
0.0025382248
0.0018707247
0.0013150244
0.00085226442
0.00046686052
0.00014590124
0.045318791
0.045654226
0.04663845
0.048270048
0.049050028
0.047981511
0.04583801
0.043510125
0.041286845
0.03885015
0.035709076
0.032096257
0.028605153
0.025263541
0.021915639
0.018643355
0.015616705
0.012907529
0.010544457
0.0085353814
0.0068552245
0.0054586912
0.0042991331
0.0033357705
0.002534719
0.0018681554
0.0013132266
0.00085110379
0.00046622688
0.00014570377
0.045299779
0.045633231
0.046611605
0.048240393
0.049027124
0.047963809
0.045819464
0.043488703
0.041262429
0.038823632
0.035682353
0.032070003
0.028579617
0.025237938
0.021890083
0.018619405
0.015595351
0.012889174
0.010529206
0.0085230587
0.0068454187
0.0054509675
0.0042931096
0.0033311357
0.0025312224
0.0018655929
0.0013114337
0.00084994639
0.00046559481
0.00014550679
0.045280761
0.045612232
0.046584806
0.048210716
0.04900419
0.047946125
0.045800943
0.043467315
0.041238034
0.038797132
0.035655645
0.032043761
0.02855409
0.025212362
0.02186455
0.018595501
0.015574043
0.012870867
0.010513995
0.0085107625
0.0068356352
0.0054432602
0.0042870995
0.0033265109
0.0025277316
0.0018630352
0.0013096439
0.00084879096
0.00046496369
0.00014531016
0.045261736
0.045591237
0.046558035
0.048181008
0.048981219
0.047928474
0.045782494
0.043445979
0.041213666
0.038770653
0.035628953
0.032017537
0.028528596
0.02518681
0.021839067
0.018571632
0.015552778
0.0128526
0.010498824
0.0084984997
0.0068258792
0.0054355731
0.0042811042
0.0033218976
0.0025242501
0.0018604838
0.001307859
0.00084763839
0.00046433431
0.00014511404
0.045242707
0.045570251
0.046531282
0.048151293
0.048958223
0.047910839
0.045764057
0.043424665
0.041189323
0.038744194
0.035602293
0.031991327
0.028503115
0.025161282
0.021813612
0.018547801
0.015531548
0.012834368
0.010483684
0.0084862686
0.0068161442
0.0054279039
0.0042751228
0.0033172948
0.0025207763
0.0018579375
0.0013060775
0.0008464881
0.00046370632
0.00014491833
0.045223672
0.045549275
0.046504561
0.048121541
0.048935187
0.047893239
0.045745689
0.043403372
0.041165005
0.038717756
0.035575656
0.031965141
0.028477642
0.025135775
0.021788182
0.018524015
0.015510366
0.012816179
0.010468581
0.0084740686
0.0068064354
0.005420256
0.0042691571
0.0033127041
0.0025173123
0.0018553985
0.0013043007
0.00084534096
0.00046308
0.00014472313
0.045204633
0.045528308
0.046477879
0.048091785
0.048912125
0.047875653
0.04572735
0.043382108
0.041140709
0.038691337
0.035549046
0.031938969
0.028452183
0.025110294
0.021762794
0.018500266
0.015489225
0.012798036
0.010453517
0.0084618928
0.0067967463
0.0054126215
0.004263202
0.0033081203
0.0025138528
0.0018528628
0.0013025262
0.0008441952
0.00046245422
0.0001445281
0.045185587
0.045507349
0.046451243
0.048062001
0.048889024
0.047858103
0.04570905
0.0433609
0.041116439
0.038664951
0.035522455
0.031912817
0.028426756
0.025084839
0.02173744
0.018476554
0.015468125
0.012779931
0.010438494
0.0084497529
0.006787088
0.0054050105
0.0042572653
0.0033035513
0.0025104036
0.0018503352
0.0013007573
0.00084305318
0.00046183036
0.0001443337
0.045166529
0.045486397
0.046424613
0.0480322
0.048865892
0.047840567
0.045690812
0.04333972
0.041092193
0.038638593
0.035495883
0.031886679
0.028401337
0.025059398
0.021712109
0.018452883
0.015447063
0.012761861
0.010423502
0.008437645
0.0067774512
0.0053974165
0.0042513418
0.0032989922
0.0025069624
0.0018478129
0.0012989925
0.00084191351
0.000461208
0.00014413977
0.045147465
0.045465453
0.046398018
0.048002384
0.048842727
0.047823067
0.045672584
0.043318561
0.041067973
0.038612257
0.035469338
0.031860562
0.028375924
0.025033985
0.021686813
0.018429251
0.015426045
0.012743836
0.010408543
0.0084255648
0.0067678371
0.0053898426
0.0042454328
0.0032944444
0.0025035296
0.0018452963
0.0012972316
0.00084077641
0.00046058717
0.00014394628
0.045128397
0.045444517
0.046371451
0.047972543
0.048819523
0.047805583
0.045654444
0.04329743
0.041043777
0.038585942
0.03544282
0.031834464
0.028350531
0.025008594
0.021661553
0.018405651
0.015405064
0.012725849
0.010393622
0.0084135076
0.0067582425
0.0053822814
0.0042395329
0.003289903
0.002500102
0.0018427834
0.0012954727
0.00083964065
0.00045996699
0.00014375298
0.045109323
0.045423588
0.04634493
0.047942689
0.048796292
0.047788132
0.045636317
0.04327636
0.041019608
0.03855965
0.035416335
0.031808383
0.028325161
0.024983222
0.021636316
0.01838209
0.01538412
0.0127079
0.01037874
0.0084014862
0.0067486778
0.0053747439
0.0042336531
0.0032853765
0.0024966851
0.0018402788
0.0012937197
0.00083850875
0.00045934875
0.00014356028
0.045090245
0.045402662
0.046318441
0.047912802
0.048773014
0.047770703
0.045618252
0.043255319
0.040995467
0.038533382
0.03538987
0.03178232
0.028299797
0.024957869
0.021611107
0.01835857
0.015363218
0.012689984
0.010363887
0.0083894931
0.0067391326
0.0053672206
0.0042277835
0.0032808583
0.0024932737
0.0018377785
0.0012919698
0.00083737883
0.00045873145
0.00014336793
0.045071161
0.045381732
0.04629196
0.047882904
0.048749709
0.047753298
0.045600225
0.043234301
0.040971353
0.038507137
0.035363426
0.031756274
0.02827444
0.024932539
0.021585939
0.01833508
0.015342356
0.012672112
0.010349064
0.0083775259
0.0067296078
0.0053597154
0.0042219277
0.0032763506
0.0024898707
0.0018352838
0.0012902241
0.00083625139
0.00045811572
0.00014317604
0.045052071
0.045360806
0.046265509
0.047852986
0.04872636
0.047735922
0.045582235
0.043213312
0.040947266
0.038480915
0.035337005
0.031730253
0.028249109
0.024907233
0.021560794
0.018311628
0.015321528
0.012654276
0.010334282
0.0083655841
0.0067201048
0.0053522258
0.0042160829
0.003271851
0.0024864737
0.0018327928
0.0012884809
0.0008351256
0.000457501
0.00014298444
0.045032968
0.045339872
0.046239095
0.04782305
0.04870298
0.047718566
0.045564309
0.043192387
0.040923209
0.038454719
0.035310622
0.031704247
0.028223794
0.02488194
0.021535673
0.018288219
0.015300743
0.01263648
0.010319538
0.0083536773
0.0067106303
0.0053447585
0.0042102562
0.0032673648
0.0024830874
0.00183031
0.0012867428
0.00083400317
0.00045688808
0.00014279339
0.045013853
0.045318947
0.046212725
0.047793104
0.048679562
0.047701241
0.045546398
0.043171493
0.040899182
0.038428557
0.035284267
0.031678262
0.028198484
0.024856675
0.021510596
0.01826484
0.015279996
0.012618716
0.01030482
0.0083417958
0.0067011741
0.0053373042
0.0042044394
0.0032628862
0.0024797057
0.0018278308
0.0012850074
0.00083288248
0.00045627591
0.00014260258
0.044994733
0.045298028
0.046186376
0.047763129
0.048656103
0.047683934
0.045528573
0.043150622
0.040875185
0.038402426
0.035257937
0.031652291
0.028173182
0.024831431
0.021485542
0.018241497
0.015259287
0.012600998
0.010290136
0.008329944
0.0066917415
0.0053298696
0.0041986384
0.0032584201
0.0024763334
0.001825359
0.0012832773
0.00083176526
0.00045566551
0.00014241235
0.044975609
0.045277117
0.046160048
0.047733145
0.048632615
0.04766666
0.04551076
0.043129784
0.040851218
0.038376323
0.035231628
0.031626348
0.028147906
0.0248062
0.021460509
0.018218191
0.015238611
0.012583313
0.010275493
0.008318118
0.0066823303
0.0053224523
0.0041928493
0.0032539628
0.0024729677
0.0018228911
0.0012815501
0.00083064966
0.00045505618
0.00014222245
0.044956481
0.045256215
0.046133744
0.047703134
0.048609078
0.047649405
0.045493018
0.043109013
0.040827285
0.038350249
0.035205342
0.031600418
0.028122642
0.024780992
0.021435515
0.018194922
0.01521798
0.012565664
0.010260882
0.0083063224
0.0066729434
0.0053150536
0.0041870747
0.0032495166
0.0024696106
0.001820429
0.0012798268
0.00082953663
0.00045444835
0.00014203299
0.04493735
0.04523532
0.046107486
0.047673111
0.048585516
0.047632182
0.045475307
0.043088271
0.040803386
0.038324205
0.035179088
0.031574511
0.028097385
0.024755806
0.021410549
0.018171684
0.015197385
0.012548053
0.010246299
0.0082945531
0.0066635775
0.0053076697
0.004181312
0.0032450784
0.00246626
0.0018179721
0.0012781067
0.00082842566
0.00045384168
0.00014184388
0.044918213
0.045214434
0.046081271
0.047643075
0.048561905
0.047614983
0.045457647
0.043067554
0.040779521
0.038298191
0.035152862
0.031548615
0.028072141
0.02473064
0.021385604
0.018148482
0.015176826
0.012530484
0.010231752
0.0082828156
0.0066542363
0.0053003061
0.0041755658
0.0032406543
0.0024629191
0.0018155227
0.001276392
0.00082731834
0.00045323679
0.00014165533
0.044899072
0.045193553
0.04605507
0.047613013
0.048538262
0.047597807
0.045440036
0.043046878
0.040755688
0.038272206
0.035126665
0.031522745
0.028046926
0.024705486
0.021360689
0.018125319
0.015156303
0.012512946
0.010217242
0.0082711011
0.0066449131
0.0052929568
0.0041698291
0.0032362362
0.002459582
0.0018130761
0.0012746793
0.00082621212
0.00045263235
0.00014146692
0.044879926
0.04517268
0.046028894
0.047582952
0.048514579
0.047580659
0.045422458
0.043026266
0.040731891
0.038246252
0.03510049
0.03149689
0.028021721
0.024680359
0.021335809
0.018102185
0.015135822
0.012495442
0.010202765
0.0082594158
0.0066356146
0.0052856271
0.0041641077
0.0032318303
0.0024562547
0.0018106359
0.0012729712
0.00082510876
0.00045202959
0.00014127906
0.044860776
0.045151813
0.046002746
0.047552858
0.048490856
0.04756353
0.045404948
0.043005681
0.040708133
0.03822033
0.035074338
0.031471058
0.027996523
0.024655252
0.021310948
0.018079086
0.015115375
0.012477982
0.010188316
0.0082477583
0.0066263376
0.0052783132
0.0041583984
0.0032274341
0.0024529351
0.0018082011
0.001271267
0.00082400803
0.00045142845
0.00014109168
0.04484162
0.045130948
0.045976643
0.047522761
0.048467103
0.047546431
0.045387451
0.042985121
0.040684415
0.038194438
0.035048211
0.031445242
0.027971342
0.024630157
0.02128611
0.018056026
0.015094962
0.01246056
0.010173902
0.0082361323
0.0066170855
0.0052710192
0.0041527057
0.0032230492
0.0024496244
0.0018057732
0.0012695671
0.00082291004
0.00045082886
0.00014090478
0.044822459
0.045110084
0.045950581
0.047492641
0.048443297
0.047529352
0.045370037
0.042964616
0.040660732
0.038168586
0.03502212
0.031419447
0.027946188
0.024605082
0.021261312
0.018032994
0.015074588
0.012443166
0.010159523
0.0082245266
0.0066078484
0.0052637357
0.0041470201
0.0032186703
0.0024463166
0.0018033474
0.0012678685
0.00082181291
0.00045022949
0.00014071793
0.044803292
0.045089224
0.045924528
0.047462501
0.048419467
0.047512298
0.045352631
0.042944162
0.040637085
0.038142771
0.034996059
0.031393675
0.02792104
0.024580027
0.021236532
0.018009996
0.015054253
0.012425807
0.010145176
0.0082129505
0.0065986376
0.005256475
0.0041413519
0.0032143046
0.0024430188
0.0018009295
0.0012661757
0.00082071947
0.00044963201
0.00014053167
0.04478412
0.045068355
0.045898499
0.047432363
0.048395587
0.047495265
0.0453353
0.042923734
0.040613472
0.038116989
0.034970025
0.031367921
0.027895899
0.024554985
0.021211767
0.017987028
0.015033948
0.012408491
0.010130857
0.0082014005
0.006589446
0.0052492289
0.0041356953
0.0032099485
0.0024397289
0.0017985166
0.0012644867
0.00081962847
0.00044903595
0.00014034589
0.044764943
0.045047497
0.0458725
0.0474022
0.048371678
0.047478254
0.045317983
0.042903332
0.040589894
0.038091238
0.034944014
0.031342187
0.027870776
0.024529952
0.021187038
0.017964094
0.015013677
0.012391205
0.010116569
0.0081898789
0.0065802769
0.0052419988
0.0041300504
0.0032056007
0.0024364455
0.0017961081
0.0012628007
0.00081853934
0.00044844107
0.00014016046
0.044745762
0.045026648
0.045846546
0.047372054
0.048347722
0.04746127
0.045300728
0.042883005
0.040566351
0.03806552
0.034918029
0.031316472
0.027845676
0.024504941
0.021162331
0.017941188
0.014993442
0.012373949
0.010102316
0.0081783789
0.0065711246
0.0052347818
0.0041244164
0.00320126
0.0024331672
0.0017937034
0.0012611168
0.00081745149
0.00044784694
0.00013997524
0.044726575
0.045005806
0.045820631
0.047341866
0.048323714
0.047444297
0.045283503
0.042862714
0.040542846
0.038039836
0.034892078
0.031290789
0.027820585
0.024479948
0.02113764
0.017918314
0.014973246
0.012356733
0.010088096
0.0081669095
0.0065619991
0.0052275874
0.0041188001
0.0031969345
0.0024298999
0.0017913073
0.0012594389
0.00081636775
0.00044725491
0.00013979067
0.044707378
0.044984971
0.045794727
0.047311675
0.048299668
0.04742734
0.045266326
0.04284245
0.040519378
0.038014184
0.034866163
0.031265126
0.0277955
0.024454962
0.021112977
0.017895478
0.01495308
0.012339556
0.010073904
0.0081554648
0.006552892
0.0052204077
0.0041131947
0.0031926168
0.0024266379
0.0017889156
0.0012577642
0.000815286
0.00044666383
0.0001396064
0.044688174
0.044964141
0.045768843
0.047281476
0.048275565
0.047410388
0.04524919
0.042822229
0.040495945
0.037988566
0.034840283
0.031239491
0.02777044
0.024429992
0.021088343
0.017872668
0.014932952
0.012322411
0.010059744
0.0081440502
0.0065438078
0.0052132441
0.0041076017
0.0031883089
0.002423384
0.0017865287
0.0012560932
0.00081420646
0.00044607391
0.00013942252
0.044668965
0.04494332
0.045742991
0.047251252
0.048251435
0.047393444
0.045232091
0.042802074
0.040472549
0.037962982
0.034814431
0.031213874
0.027745398
0.024405038
0.021063723
0.01784989
0.014912861
0.012305295
0.010045619
0.008132659
0.0065347432
0.0052060963
0.0041020202
0.0031840091
0.0024201363
0.001784146
0.0012544252
0.00081312881
0.00044548523
0.00013923901
0.044649752
0.044922506
0.045717186
0.047221045
0.048227248
0.047376506
0.045215043
0.042781946
0.040449189
0.037937431
0.034788607
0.031188291
0.027720362
0.024380092
0.021039121
0.017827145
0.014892803
0.012288221
0.010031526
0.0081212951
0.0065257015
0.0051989674
0.0040964552
0.0031797219
0.0024168984
0.0017817709
0.0012527621
0.00081205443
0.00044489844
0.00013905607
0.044630535
0.0449017
0.045691421
0.047190799
0.048203027
0.047359573
0.04519802
0.042761842
0.040425863
0.037911912
0.03476281
0.031162732
0.027695334
0.02435515
0.021014551
0.017804427
0.014872772
0.012271179
0.010017457
0.0081099522
0.0065166756
0.0051918501
0.0040908975
0.0031754403
0.0024136637
0.0017793984
0.0012511004
0.00081098101
0.00044431208
0.00013887326
0.044611314
0.044880899
0.045665675
0.047160567
0.048178759
0.047342649
0.045181056
0.042741808
0.040402572
0.037886433
0.03473705
0.031137203
0.027670328
0.024330222
0.020989995
0.017781738
0.014852781
0.012254167
0.010003419
0.0080986386
0.0065076718
0.0051847509
0.0040853544
0.0031711701
0.0024104371
0.0017770323
0.0012494435
0.0008099106
0.00044372718
0.00013869091
0.044592088
0.044860102
0.045639945
0.047130311
0.048154443
0.047325725
0.045164108
0.042721811
0.040379317
0.03786099
0.034711325
0.031111698
0.027645335
0.024305302
0.020965448
0.017759076
0.014832822
0.012237183
0.0099894133
0.0080873471
0.0064986869
0.0051776646
0.0040798205
0.0031669073
0.0024072167
0.0017746698
0.0012477894
0.00080884197
0.00044314316
0.00013850885
0.044572856
0.044839304
0.045614244
0.047100043
0.048130093
0.047308805
0.045147226
0.042701837
0.040356103
0.03783558
0.034685633
0.031086222
0.027620346
0.024280377
0.02094093
0.017736446
0.014812889
0.012220238
0.0099754352
0.0080760788
0.0064897209
0.0051705945
0.0040742997
0.0031626537
0.0024040038
0.0017723126
0.001246139
0.00080777571
0.0004425606
0.00013832724
0.044553611
0.044818511
0.04558859
0.047069789
0.048105685
0.047291888
0.045130352
0.042681908
0.04033293
0.037810202
0.034659968
0.031060781
0.027595364
0.024255456
0.020916428
0.017713839
0.014792988
0.012203322
0.0099614803
0.0080648311
0.0064807706
0.0051635352
0.0040687876
0.0031584063
0.0024007953
0.0017699584
0.0012444905
0.00080671059
0.00044197882
0.00013814585
0.044534358
0.044797719
0.045562976
0.0470395
0.048081246
0.047274972
0.045113549
0.042662039
0.040309791
0.037784855
0.03463433
0.031035372
0.027570403
0.024230538
0.020891935
0.017691261
0.014773125
0.012186436
0.0099475564
0.0080536116
0.0064718432
0.0051564966
0.004063291
0.0031541715
0.0023975958
0.0017676116
0.0012428468
0.00080564867
0.00044139879
0.00013796501
0.044515098
0.04477692
0.045537392
0.04700924
0.048056747
0.047258062
0.045096752
0.042642192
0.040286686
0.03775954
0.034608718
0.031009997
0.027545452
0.024205613
0.020867463
0.017668712
0.014753286
0.012169573
0.0099336601
0.0080424114
0.0064629296
0.0051494662
0.0040578008
0.0031499415
0.0023943993
0.0017652673
0.0012412049
0.0008045879
0.00044081916
0.00013778429
0.044495835
0.04475613
0.045511817
0.04697894
0.048032211
0.047241148
0.045080022
0.04262237
0.040263614
0.037734255
0.034583142
0.030984653
0.027520506
0.024180675
0.020843016
0.01764619
0.014733475
0.012152751
0.0099197911
0.0080312333
0.0064540351
0.0051424511
0.0040523213
0.0031457201
0.0023912097
0.0017629273
0.0012395663
0.00080352921
0.00044024051
0.00013760387
0.044476568
0.044735348
0.045486269
0.046948652
0.048007631
0.047224235
0.045063301
0.042602625
0.040240578
0.037709003
0.0345576
0.03095936
0.027495573
0.024155735
0.020818584
0.017623698
0.014713702
0.012135956
0.0099059464
0.0080200766
0.006445157
0.0051354492
0.0040468531
0.0031415061
0.0023880261
0.0017605913
0.0012379306
0.00080247238
0.00043966302
0.00013742384
0.044457298
0.044714576
0.045460769
0.046918374
0.047983
0.047207327
0.045046645
0.042582905
0.040217575
0.037683782
0.034532089
0.030934082
0.027470662
0.024130812
0.02079417
0.017601235
0.014693961
0.01211919
0.0098921309