/*--------------------------------*- C++ -*----------------------------------*\
| =========                 |                                                 |
| \\      /  F ield         | OpenFOAM: The Open Source CFD Toolbox           |
|  \\    /   O peration     | Version:  v2012                                 |
|   \\  /    A nd           | Website:  www.openfoam.com                      |
|    \\/     M anipulation  |                                                 |
\*---------------------------------------------------------------------------*/
FoamFile
{
    version     2.0;
    format      ascii;
    class       volScalarField;
    location    "900";
    object      nut;
}
// * * * * * * * * * * * * * * * * * * * * * * * * * * * * * * * * * * * * * //

dimensions      [0 2 -1 0 0 0 0];


internalField   nonuniform List<scalar> 
24000
(
2.3146016e-05
1.2626514e-05
1.0446531e-05
1.2204294e-05
1.3775494e-05
1.4912388e-05
1.5147247e-05
1.5198428e-05
1.6081546e-05
1.1339191e-05
7.5796111e-06
6.5276415e-06
6.3558387e-06
5.2855151e-06
3.5399955e-06
2.3346793e-06
1.4679215e-06
7.9905576e-07
3.4167193e-07
1.247434e-07
4.0229942e-08
1.1751173e-08
3.1312097e-09
7.5194432e-10
1.5761299e-10
2.7232488e-11
3.5513482e-12
3.6119345e-13
1.1249087e-13
1.2044396e-13
2.3250074e-05
1.2688476e-05
1.0431807e-05
1.215409e-05
1.3735601e-05
1.4884813e-05
1.512809e-05
1.5180663e-05
1.6057762e-05
1.1323965e-05
7.5685563e-06
6.5162034e-06
6.339469e-06
5.2728265e-06
3.526321e-06
2.3246429e-06
1.4607005e-06
7.9463139e-07
3.3950442e-07
1.2388146e-07
3.993812e-08
1.1663704e-08
3.1076108e-09
7.4624949e-10
1.5641796e-10
2.7025726e-11
3.5238389e-12
3.5772103e-13
1.1079844e-13
1.1855723e-13
2.3357784e-05
1.2752304e-05
1.0448372e-05
1.2139643e-05
1.3698147e-05
1.483485e-05
1.5071257e-05
1.5113683e-05
1.6033369e-05
1.1306543e-05
7.5559949e-06
6.5040632e-06
6.3290116e-06
5.2628339e-06
3.513773e-06
2.3155984e-06
1.4542261e-06
7.8953861e-07
3.3689749e-07
1.2281653e-07
3.957366e-08
1.1554392e-08
3.0782065e-09
7.391742e-10
1.5493663e-10
2.6770927e-11
3.4915289e-12
3.554199e-13
1.1095882e-13
1.1883188e-13
2.3466341e-05
1.2816923e-05
1.0444675e-05
1.2114612e-05
1.36631e-05
1.4796066e-05
1.5032665e-05
1.5072587e-05
1.6008103e-05
1.1288549e-05
7.5432965e-06
6.4921105e-06
6.3146001e-06
5.2477996e-06
3.5007892e-06
2.30688e-06
1.448329e-06
7.8554299e-07
3.3498589e-07
1.2207138e-07
3.9325475e-08
1.1480954e-08
3.0585696e-09
7.3446049e-10
1.539504e-10
2.6601013e-11
3.4696071e-12
3.5341953e-13
1.1053736e-13
1.1840316e-13
2.3575637e-05
1.2882124e-05
1.0437942e-05
1.2088692e-05
1.3628241e-05
1.4758439e-05
1.4995716e-05
1.5032899e-05
1.5982483e-05
1.1270085e-05
7.5303074e-06
6.4801316e-06
6.3014149e-06
5.2293661e-06
3.4882149e-06
2.2983571e-06
1.4424321e-06
7.8135001e-07
3.3293696e-07
1.2125924e-07
3.9051995e-08
1.1399525e-08
3.0367267e-09
7.292092e-10
1.5285097e-10
2.6411634e-11
3.445281e-12
3.5132583e-13
1.1022239e-13
1.18105e-13
2.3685588e-05
1.2947862e-05
1.0429447e-05
1.2061801e-05
1.3593716e-05
1.4722053e-05
1.49605e-05
1.4994953e-05
1.5956597e-05
1.1251312e-05
7.5171503e-06
6.468173e-06
6.2880919e-06
5.2108918e-06
3.4756033e-06
2.2898046e-06
1.4365277e-06
7.7719443e-07
3.3091513e-07
1.2046044e-07
3.8783528e-08
1.1319664e-08
3.0153111e-09
7.240608e-10
1.5177297e-10
2.6225892e-11
3.4213895e-12
3.4923589e-13
1.0987271e-13
1.1776532e-13
2.3796144e-05
1.3014093e-05
1.0420482e-05
1.2034606e-05
1.3559389e-05
1.4686249e-05
1.4926027e-05
1.4957634e-05
1.5930532e-05
1.1232313e-05
7.5038713e-06
6.4562341e-06
6.2748505e-06
5.1925168e-06
3.4630207e-06
2.2812515e-06
1.4306157e-06
7.7302525e-07
3.2888581e-07
1.1965841e-07
3.85139e-08
1.123944e-08
2.993795e-09
7.1888772e-10
1.5068973e-10
2.603924e-11
3.3973804e-12
3.4713612e-13
1.0952194e-13
1.174248e-13
2.3907269e-05
1.3080787e-05
1.0411444e-05
1.2007296e-05
1.3525196e-05
1.4650791e-05
1.4892006e-05
1.4920715e-05
1.5904322e-05
1.1213144e-05
7.4905098e-06
6.4443213e-06
6.2616249e-06
5.1741999e-06
3.4504575e-06
2.2727031e-06
1.4247073e-06
7.6886245e-07
3.268613e-07
1.1885878e-07
3.8245167e-08
1.1159491e-08
2.9723526e-09
7.1373207e-10
1.4961006e-10
2.5853189e-11
3.3734435e-12
3.4503823e-13
1.09167e-13
1.1707926e-13
2.4018933e-05
1.3147923e-05
1.0402555e-05
1.1979974e-05
1.3491093e-05
1.4615539e-05
1.4858266e-05
1.4884055e-05
1.5877992e-05
1.1193843e-05
7.477093e-06
6.4324366e-06
6.2484307e-06
5.1559485e-06
3.4379275e-06
2.2641689e-06
1.4188094e-06
7.6470981e-07
3.248433e-07
1.1806218e-07
3.7977539e-08
1.1079881e-08
2.9510014e-09
7.0859816e-10
1.485349e-10
2.5667905e-11
3.3496022e-12
3.4294611e-13
1.0881037e-13
1.1673153e-13
2.4131113e-05
1.3215484e-05
1.0393914e-05
1.1952669e-05
1.3457062e-05
1.4580431e-05
1.4824722e-05
1.4847564e-05
1.5851559e-05
1.1174434e-05
7.4636397e-06
6.4205816e-06
6.2352751e-06
5.1377684e-06
3.4254344e-06
2.2556542e-06
1.4129266e-06
7.6057132e-07
3.2283402e-07
1.1726954e-07
3.7711334e-08
1.1000706e-08
2.9297679e-09
7.0349253e-10
1.4746561e-10
2.5483624e-11
3.3258872e-12
3.4086271e-13
1.0845289e-13
1.1638246e-13
2.4243789e-05
1.3283456e-05
1.038558e-05
1.1925392e-05
1.3423083e-05
1.4545425e-05
1.4791339e-05
1.4811209e-05
1.5825031e-05
1.1154933e-05
7.4501634e-06
6.4087575e-06
6.2221645e-06
5.1196602e-06
3.4129825e-06
2.2471648e-06
1.4070629e-06
7.5645038e-07
3.2083521e-07
1.1648157e-07
3.7446801e-08
1.0922042e-08
2.9086722e-09
6.9841999e-10
1.4640324e-10
2.5300526e-11
3.3023219e-12
3.3879049e-13
1.0809537e-13
1.1603295e-13
2.4356942e-05
1.3351828e-05
1.0377586e-05
1.1898164e-05
1.3389163e-05
1.4510513e-05
1.4758103e-05
1.4774963e-05
1.5798412e-05
1.113535e-05
7.4366737e-06
6.396965e-06
6.2091009e-06
5.1016237e-06
3.4005763e-06
2.2387022e-06
1.4012198e-06
7.5234831e-07
3.1884749e-07
1.1569852e-07
3.7184027e-08
1.0843913e-08
2.8877211e-09
6.9338221e-10
1.4534812e-10
2.5118674e-11
3.2789148e-12
3.3673035e-13
1.0773807e-13
1.1568328e-13
2.4470551e-05
1.3420587e-05
1.036996e-05
1.187099e-05
1.3355303e-05
1.447569e-05
1.4724996e-05
1.4738798e-05
1.5771701e-05
1.1115693e-05
7.423178e-06
6.3852038e-06
6.1960893e-06
5.0836636e-06
3.3882168e-06
2.2302686e-06
1.3953991e-06
7.4826618e-07
3.1687144e-07
1.1492066e-07
3.6923104e-08
1.0766351e-08
2.8669234e-09
6.8838134e-10
1.4430072e-10
2.4938148e-11
3.2556768e-12
3.3468371e-13
1.0738169e-13
1.153342e-13
2.4584599e-05
1.3489722e-05
1.0362707e-05
1.1843861e-05
1.3321499e-05
1.4440936e-05
1.4691998e-05
1.4702709e-05
1.5744897e-05
1.1095966e-05
7.4096826e-06
6.3734739e-06
6.1831302e-06
5.0657777e-06
3.3759044e-06
2.2218663e-06
1.3896021e-06
7.4420511e-07
3.1490762e-07
1.1414816e-07
3.6664087e-08
1.068937e-08
2.8462826e-09
6.8341814e-10
1.4326116e-10
2.4758966e-11
3.2326098e-12
3.326506e-13
1.0702618e-13
1.1498568e-13
2.4699066e-05
1.3559222e-05
1.0355834e-05
1.1816769e-05
1.3287747e-05
1.4406249e-05
1.4659099e-05
1.4666684e-05
1.5717994e-05
1.1076173e-05
7.396193e-06
6.3617754e-06
6.170222e-06
5.0479647e-06
3.3636416e-06
2.2134957e-06
1.3838297e-06
7.4016608e-07
3.1295649e-07
1.1338123e-07
3.6407039e-08
1.0612988e-08
2.8258035e-09
6.7849383e-10
1.4222972e-10
2.4581175e-11
3.2097199e-12
3.3063173e-13
1.0667182e-13
1.1463801e-13
2.4813933e-05
1.3629076e-05
1.0349342e-05
1.178972e-05
1.3254047e-05
1.4371629e-05
1.4626301e-05
1.4630719e-05
1.5690989e-05
1.105632e-05
7.3827137e-06
6.350108e-06
6.157368e-06
5.0302262e-06
3.351427e-06
2.2051561e-06
1.3780816e-06
7.3614877e-07
3.1101787e-07
1.1261979e-07
3.6151945e-08
1.0537201e-08
2.8054854e-09
6.7360831e-10
1.4120641e-10
2.440478e-11
3.1870081e-12
3.2862733e-13
1.0631878e-13
1.1429138e-13
2.492918e-05
1.3699273e-05
1.0343226e-05
1.1762719e-05
1.32204e-05
1.4337064e-05
1.4593604e-05
1.4594826e-05
1.5663873e-05
1.1036409e-05
7.3692478e-06
6.3384707e-06
6.1445687e-06
5.0125622e-06
3.3392603e-06
2.1968488e-06
1.3723583e-06
7.3215355e-07
3.0909204e-07
1.1186395e-07
3.5898845e-08
1.0462022e-08
2.7853323e-09
6.6876252e-10
1.4019141e-10
2.4229818e-11
3.1644796e-12
3.2663795e-13
1.0596718e-13
1.1394592e-13
2.5044789e-05
1.3769801e-05
1.0337486e-05
1.1735757e-05
1.3186802e-05
1.4302556e-05
1.4560998e-05
1.4558993e-05
1.5636638e-05
1.1016441e-05
7.3557988e-06
6.3268631e-06
6.1318225e-06
4.9949703e-06
3.3271428e-06
2.1885731e-06
1.3666592e-06
7.2818015e-07
3.0717873e-07
1.1111358e-07
3.5647676e-08
1.0387432e-08
2.7653377e-09
6.6395479e-10
1.3918435e-10
2.4056216e-11
3.1421245e-12
3.2466261e-13
1.0561681e-13
1.136014e-13
2.5160738e-05
1.384065e-05
1.0332122e-05
1.1708823e-05
1.3153246e-05
1.4268087e-05
1.4528473e-05
1.4523222e-05
1.5609276e-05
1.099642e-05
7.3423705e-06
6.3152848e-06
6.1191307e-06
4.9774509e-06
3.3150737e-06
2.1803292e-06
1.3609853e-06
7.2422897e-07
3.0527816e-07
1.1036878e-07
3.539848e-08
1.0313442e-08
2.7455055e-09
6.5918619e-10
1.3818546e-10
2.3884017e-11
3.1199488e-12
3.2270212e-13
1.0526808e-13
1.132583e-13
2.5277008e-05
1.3911807e-05
1.0327138e-05
1.1681916e-05
1.3119727e-05
1.4233655e-05
1.4496024e-05
1.4487502e-05
1.5581786e-05
1.0976349e-05
7.3289667e-06
6.3037353e-06
6.1064921e-06
4.9600047e-06
3.303052e-06
2.1721173e-06
1.3553357e-06
7.2029972e-07
3.033902e-07
1.096295e-07
3.5151241e-08
1.0240048e-08
2.7258346e-09
6.5445645e-10
1.371947e-10
2.3713216e-11
3.0979514e-12
3.2075614e-13
1.0492073e-13
1.1291631e-13
2.5393579e-05
1.3983261e-05
1.032252e-05
1.1655053e-05
1.3086256e-05
1.4199268e-05
1.4463624e-05
1.4451837e-05
1.5535963e-05
1.0956286e-05
7.3155897e-06
6.2922137e-06
6.0939064e-06
4.9426293e-06
3.2910792e-06
2.1639373e-06
1.3497105e-06
7.1639239e-07
3.0151483e-07
1.0889572e-07
3.4905953e-08
1.0167249e-08
2.7063247e-09
6.4976554e-10
1.3621209e-10
2.3543818e-11
3.0761335e-12
3.1882492e-13
1.0457487e-13
1.1257555e-13
2.551043e-05
1.4055001e-05
1.0318267e-05
1.1628225e-05
1.3052827e-05
1.4164919e-05
1.4431257e-05
1.4416242e-05
1.5487963e-05
1.0936262e-05
7.3022397e-06
6.2807192e-06
6.0813736e-06
4.9253236e-06
3.2791539e-06
2.1557884e-06
1.3441098e-06
7.1250675e-07
2.9965178e-07
1.0816728e-07
3.4662545e-08
1.0095022e-08
2.686969e-09
6.4511163e-10
1.352372e-10
2.3375745e-11
3.0544849e-12
3.1690775e-13
1.0423058e-13
1.1223617e-13
2.562754e-05
1.4127016e-05
1.0314374e-05
1.1601418e-05
1.3019439e-05
1.4130611e-05
1.4398911e-05
1.4380709e-05
1.5440141e-05
1.0916278e-05
7.2889168e-06
6.2692513e-06
6.0688922e-06
4.9080895e-06
3.2672758e-06
2.1476721e-06
1.3385343e-06
7.0864336e-07
2.9780143e-07
1.0744437e-07
3.4421096e-08
1.002339e-08
2.6677745e-09
6.4049659e-10
1.3427043e-10
2.320907e-11
3.0330154e-12
3.1500552e-13
1.0388806e-13
1.1189834e-13
2.5744889e-05
1.4199293e-05
1.0310856e-05
1.1574627e-05
1.2986091e-05
1.4096337e-05
1.436658e-05
1.4345241e-05
1.5392519e-05
1.0896335e-05
7.2756209e-06
6.2578092e-06
6.0564608e-06
4.8909237e-06
3.2554447e-06
2.1395868e-06
1.3329825e-06
7.0480142e-07
2.9596334e-07
1.067268e-07
3.4181536e-08
9.9523332e-09
2.6487354e-09
6.3591892e-10
1.3331148e-10
2.3043736e-11
3.011717e-12
3.1311712e-13
1.0354672e-13
1.1156142e-13
2.5862455e-05
1.427182e-05
1.0307721e-05
1.1547872e-05
1.2952785e-05
1.4062097e-05
1.433427e-05
1.430984e-05
1.5345088e-05
1.0876434e-05
7.2623517e-06
6.246392e-06
6.0440807e-06
4.8738254e-06
3.2436601e-06
2.1315322e-06
1.327455e-06
7.0098113e-07
2.9413758e-07
1.0601458e-07
3.3943863e-08
9.8818505e-09
2.6298516e-09
6.3137877e-10
1.3236039e-10
2.2879755e-11
2.9905917e-12
3.1124311e-13
1.0320704e-13
1.1122596e-13
2.5980217e-05
1.4344585e-05
1.0304967e-05
1.1521163e-05
1.291953e-05
1.4027901e-05
1.4301986e-05
1.4274498e-05
1.5297821e-05
1.0856575e-05
7.2491085e-06
6.2349986e-06
6.0317516e-06
4.8567953e-06
3.2319203e-06
2.1235082e-06
1.3219513e-06
6.9718208e-07
2.9232387e-07
1.0530757e-07
3.3708026e-08
9.8119258e-09
2.6111186e-09
6.2687485e-10
1.3141688e-10
2.271708e-11
2.9696335e-12
3.0938308e-13
1.0286906e-13
1.1089199e-13
2.6098154e-05
1.4417573e-05
1.0302591e-05
1.1494481e-05
1.2886318e-05
1.3993741e-05
1.4269724e-05
1.4239222e-05
1.5250718e-05
1.0836758e-05
7.2358909e-06
6.2236286e-06
6.0194709e-06
4.8398324e-06
3.2202262e-06
2.1155146e-06
1.3164711e-06
6.9340419e-07
2.9052228e-07
1.0460586e-07
3.3474065e-08
9.7425732e-09
2.5925405e-09
6.2240831e-10
1.3048121e-10
2.2555754e-11
2.9488482e-12
3.0753736e-13
1.025326e-13
1.1055932e-13
2.6216243e-05
1.4490773e-05
1.0300592e-05
1.1467822e-05
1.2853151e-05
1.3959611e-05
1.4237471e-05
1.4204e-05
1.520378e-05
1.0816982e-05
7.2226984e-06
6.2122811e-06
6.0072384e-06
4.8229346e-06
3.2085765e-06
2.1075498e-06
1.3110134e-06
6.8964673e-07
2.8873235e-07
1.039092e-07
3.324189e-08
9.6737627e-09
2.574109e-09
6.1797707e-10
1.295529e-10
2.2395694e-11
2.9282248e-12
3.0570487e-13
1.0219738e-13
1.1022764e-13
2.6334464e-05
1.4564173e-05
1.0298974e-05
1.144119e-05
1.2820023e-05
1.3925514e-05
1.4205227e-05
1.4168829e-05
1.5157008e-05
1.0797249e-05
7.2095312e-06
6.2009553e-06
5.9950551e-06
4.8061016e-06
3.1969709e-06
2.0996154e-06
1.3055795e-06
6.8591046e-07
2.8695444e-07
1.0321775e-07
3.3011549e-08
9.6055107e-09
2.5558286e-09
6.1358229e-10
1.2863225e-10
2.223695e-11
2.90777e-12
3.0388649e-13
1.0186392e-13
1.0989755e-13
2.6452795e-05
1.4637759e-05
1.0297731e-05
1.1414604e-05
1.2786944e-05
1.3891448e-05
1.4172999e-05
1.4133716e-05
1.5110396e-05
1.0777558e-05
7.1963893e-06
6.1896503e-06
5.9829183e-06
4.7893339e-06
3.1854093e-06
2.0917107e-06
1.3001684e-06
6.8219466e-07
2.8518813e-07
1.0253131e-07
3.278297e-08
9.5377934e-09
2.5376926e-09
6.0922227e-10
1.2771886e-10
2.2079456e-11
2.8874748e-12
3.0208131e-13
1.0153193e-13
1.0956873e-13
2.6571215e-05
1.4711518e-05
1.0296867e-05
1.1388055e-05
1.2753913e-05
1.3857418e-05
1.4140789e-05
1.4098653e-05
1.5063945e-05
1.0757911e-05
7.1832724e-06
6.1783653e-06
5.9708275e-06
4.77263e-06
3.1738916e-06
2.0838347e-06
1.2947798e-06
6.7849908e-07
2.8343338e-07
1.0184991e-07
3.2556175e-08
9.4706205e-09
2.5197041e-09
6.0489783e-10
1.2681294e-10
2.1923251e-11
2.8673449e-12
3.0028987e-13
1.0120146e-13
1.0924122e-13
2.6689702e-05
1.4785436e-05
1.0296372e-05
1.1361525e-05
1.2720921e-05
1.3823413e-05
1.4108585e-05
1.4063644e-05
1.501769e-05
1.0738307e-05
7.1701801e-06
6.1670995e-06
5.9587835e-06
4.7559877e-06
3.162416e-06
2.0759871e-06
1.2894135e-06
6.748236e-07
2.8168998e-07
1.011734e-07
3.2331103e-08
9.4039696e-09
2.5018567e-09
6.0060734e-10
1.2591412e-10
2.1768267e-11
2.8473714e-12
2.9851137e-13
1.0087237e-13
1.0891487e-13
2.6808234e-05
1.4859502e-05
1.0296242e-05
1.1335012e-05
1.268797e-05
1.3789432e-05
1.4076381e-05
1.402869e-05
1.4971602e-05
1.0718749e-05
7.1571121e-06
6.1558519e-06
5.9467841e-06
4.7394082e-06
3.1509828e-06
2.0681694e-06
1.2840706e-06
6.7116888e-07
2.7995832e-07
1.0050195e-07
3.210781e-08
9.3378599e-09
2.4841557e-09
5.9635217e-10
1.2502269e-10
2.1614554e-11
2.827561e-12
2.9674657e-13
1.0054497e-13
1.0859005e-13
2.692679e-05
1.4933702e-05
1.0296505e-05
1.1308534e-05
1.2655062e-05
1.3755481e-05
1.4044186e-05
1.3993786e-05
1.4925673e-05
1.0699237e-05
7.1440684e-06
6.1446216e-06
5.934828e-06
4.7228899e-06
3.1395921e-06
2.0603791e-06
1.278749e-06
6.6753342e-07
2.7823758e-07
9.9835219e-08
3.1886174e-08
9.2722526e-09
2.4665902e-09
5.9212963e-10
1.2413809e-10
2.1462014e-11
2.8079003e-12
2.9499407e-13
1.0021888e-13
1.0826634e-13
2.7045349e-05
1.5008024e-05
1.0297157e-05
1.1282096e-05
1.2622206e-05
1.3721554e-05
1.4012004e-05
1.3958935e-05
1.4879882e-05
1.0679773e-05
7.1310489e-06
6.1334074e-06
5.9229175e-06
4.7064325e-06
3.128242e-06
2.052616e-06
1.273449e-06
6.6391749e-07
2.7652797e-07
9.9173325e-08
3.1666247e-08
9.2071665e-09
2.4491661e-09
5.8794125e-10
1.2326067e-10
2.1310712e-11
2.7883982e-12
2.9325483e-13
9.989438e-14
1.0794403e-13
2.7163888e-05
1.5082456e-05
1.0298203e-05
1.1255673e-05
1.2589396e-05
1.3687658e-05
1.3979828e-05
1.3924128e-05
1.4834219e-05
1.0660357e-05
7.1180538e-06
6.1222084e-06
5.9110502e-06
4.6900338e-06
3.1169312e-06
2.0448805e-06
1.2681706e-06
6.6032117e-07
2.748294e-07
9.8516176e-08
3.1447987e-08
9.1425859e-09
2.4318784e-09
5.837857e-10
1.2239012e-10
2.1160596e-11
2.7690481e-12
2.9152814e-13
9.9571193e-14
1.0762283e-13
2.7282387e-05
1.5156987e-05
1.0299648e-05
1.122926e-05
1.2556629e-05
1.3653774e-05
1.3947644e-05
1.3889366e-05
1.4788711e-05
1.0640991e-05
7.1050832e-06
6.1110237e-06
5.899224e-06
4.6736944e-06
3.1056624e-06
2.0371727e-06
1.2629139e-06
6.5674443e-07
2.7314196e-07
9.7863831e-08
3.123142e-08
9.0785203e-09
2.4147305e-09
5.7966391e-10
1.2152664e-10
2.1011699e-11
2.7498546e-12
2.898146e-13
9.9249576e-14
1.0730301e-13
2.7400822e-05
1.5231604e-05
1.0301485e-05
1.1202871e-05
1.2523906e-05
1.3619913e-05
1.3915457e-05
1.3854646e-05
1.4743348e-05
1.0621677e-05
7.0921373e-06
6.099852e-06
5.8874412e-06
4.6574149e-06
3.0944328e-06
2.0294905e-06
1.2576773e-06
6.5318591e-07
2.7146484e-07
9.7215945e-08
3.1016417e-08
9.0149287e-09
2.3977103e-09
5.7557284e-10
1.2066959e-10
2.0863905e-11
2.7308024e-12
2.8811283e-13
9.8929329e-14
1.069844e-13
2.7519173e-05
1.5306295e-05
1.0303668e-05
1.1176525e-05
1.2491235e-05
1.3586076e-05
1.3883277e-05
1.3819969e-05
1.4698114e-05
1.0602416e-05
7.0792167e-06
6.088692e-06
5.8757011e-06
4.6411922e-06
3.0832418e-06
2.0218355e-06
1.2524621e-06
6.4964671e-07
2.6979867e-07
9.6572789e-08
3.0803082e-08
8.9518449e-09
2.3808278e-09
5.7151507e-10
1.1981953e-10
2.0717316e-11
2.7119045e-12
2.8642395e-13
9.861064e-14
1.0666718e-13
2.7637417e-05
1.5381048e-05
1.0306104e-05
1.115021e-05
1.2458618e-05
1.3552262e-05
1.3851099e-05
1.3785337e-05
1.4653016e-05
1.0583211e-05
7.0663224e-06
6.0775426e-06
5.8639999e-06
4.6250262e-06
3.0720906e-06
2.014207e-06
1.2472675e-06
6.4612636e-07
2.6814306e-07
9.5934158e-08
3.0591333e-08
8.8892417e-09
2.3640749e-09
5.6748848e-10
1.1897599e-10
2.0571851e-11
2.6931501e-12
2.8474675e-13
9.8293048e-14
1.0635083e-13
2.7755534e-05
1.5455851e-05
1.0309131e-05
1.1123898e-05
1.2426046e-05
1.3518465e-05
1.381891e-05
1.3750743e-05
1.4608065e-05
1.0564063e-05
7.0534552e-06
6.0664024e-06
5.8523403e-06
4.6089189e-06
3.060979e-06
2.006605e-06
1.2420941e-06
6.4262482e-07
2.6649812e-07
9.5300133e-08
3.0381205e-08
8.8271321e-09
2.347456e-09
5.6349427e-10
1.1813926e-10
2.0427562e-11
2.6745471e-12
2.830824e-13
9.7977158e-14
1.0603605e-13
2.7873502e-05
1.5530692e-05
1.0312757e-05
1.1097594e-05
1.2393521e-05
1.3484677e-05
1.378671e-05
1.3716191e-05
1.4563265e-05
1.0544976e-05
7.0406159e-06
6.0552695e-06
5.8407223e-06
4.5928681e-06
3.0499044e-06
1.9990285e-06
1.2369406e-06
6.3914123e-07
2.6486329e-07
9.4670444e-08
3.0172593e-08
8.7654808e-09
2.3309605e-09
5.5952972e-10
1.1730872e-10
2.0284337e-11
2.6560804e-12
2.814295e-13
9.7662662e-14
1.057225e-13
2.79913e-05
1.5605559e-05
1.03168e-05
1.1071317e-05
1.2361047e-05
1.3450912e-05
1.3754512e-05
1.368168e-05
1.4518601e-05
1.0525953e-05
7.0278054e-06
6.0441422e-06
5.8291432e-06
4.5768726e-06
3.038868e-06
1.9914782e-06
1.2318077e-06
6.3567643e-07
2.6323903e-07
9.4045306e-08
2.9965582e-08
8.7043162e-09
2.3145968e-09
5.5559702e-10
1.1648487e-10
2.0142264e-11
2.6377615e-12
2.7978894e-13
9.7349585e-14
1.054102e-13
2.8108907e-05
1.5680441e-05
1.0321253e-05
1.1045084e-05
1.2328635e-05
1.3417162e-05
1.3722308e-05
1.3647211e-05
1.4474066e-05
1.0506995e-05
7.0150252e-06
6.0330183e-06
5.817602e-06
4.5609322e-06
3.0278695e-06
1.9839528e-06
1.2266944e-06
6.3222958e-07
2.6162483e-07
9.3424468e-08
2.9760076e-08
8.6436074e-09
2.2983562e-09
5.5169398e-10
1.1566722e-10
2.0001257e-11
2.6195788e-12
2.7815951e-13
9.703761e-14
1.050988e-13
2.8226302e-05
1.5755325e-05
1.0326556e-05
1.1018862e-05
1.2296275e-05
1.3383424e-05
1.3690088e-05
1.3612779e-05
1.4429671e-05
1.0488107e-05
7.0022777e-06
6.0218957e-06
5.8061017e-06
4.5450477e-06
3.0169078e-06
1.9764529e-06
1.2216016e-06
6.2880101e-07
2.60021e-07
9.2808105e-08
2.9556144e-08
8.5833778e-09
2.2822456e-09
5.4782231e-10
1.1485617e-10
1.9861391e-11
2.6015425e-12
2.7654244e-13
9.6727273e-14
1.047889e-13
2.8343465e-05
1.5830202e-05
1.0332038e-05
1.0992635e-05
1.2263965e-05
1.3349691e-05
1.3657847e-05
1.357838e-05
1.438541e-05
1.0469291e-05
6.9895651e-06
6.0107713e-06
5.7946404e-06
4.5292155e-06
3.0059818e-06
1.9689775e-06
1.2165278e-06
6.2538986e-07
2.5842694e-07
9.2195912e-08
2.9353667e-08
8.5235875e-09
2.2662533e-09
5.4397911e-10
1.1405108e-10
1.9722549e-11
2.5836376e-12
2.749363e-13
9.6418172e-14
1.0448008e-13
2.8460377e-05
1.5905061e-05
1.0337822e-05
1.0966414e-05
1.2231706e-05
1.3315967e-05
1.3625597e-05
1.3544019e-05
1.4341275e-05
1.0450549e-05
6.9768906e-06
5.9996418e-06
5.7832162e-06
4.5134362e-06
2.995093e-06
1.9615267e-06
1.2114735e-06
6.2199658e-07
2.5684292e-07
9.1588042e-08
2.915271e-08
8.4642597e-09
2.2503863e-09
5.4016619e-10
1.1325233e-10
1.9584804e-11
2.5658738e-12
2.7334204e-13
9.6110503e-14
1.0417252e-13
2.8577017e-05
1.5979891e-05
1.0343961e-05
1.0940216e-05
1.2199505e-05
1.3282257e-05
1.3593334e-05
1.3509693e-05
1.4297258e-05
1.0431885e-05
6.9642575e-06
5.9885035e-06
5.7718316e-06
4.4977109e-06
2.9842394e-06
1.9540995e-06
1.2064381e-06
6.1862048e-07
2.5526854e-07
9.0984287e-08
2.8953193e-08
8.4053674e-09
2.2346369e-09
5.3638164e-10
1.1245953e-10
1.9448081e-11
2.5482408e-12
2.7175862e-13
9.5803996e-14
1.0386595e-13
2.8693366e-05
1.605468e-05
1.0350481e-05
1.0914046e-05
1.216737e-05
1.3248549e-05
1.3561047e-05
1.3475403e-05
1.4253371e-05
1.0413303e-05
6.9516704e-06
5.9773523e-06
5.7604867e-06
4.4820375e-06
2.9734208e-06
1.9466975e-06
1.2014225e-06
6.1526224e-07
2.5370426e-07
9.0384875e-08
2.87552e-08
8.3469388e-09
2.2190132e-09
5.3262744e-10
1.1167311e-10
1.9312457e-11
2.5307488e-12
2.7018704e-13
9.5499011e-14
1.0356077e-13
2.8809404e-05
1.6129417e-05
1.0357402e-05
1.0887872e-05
1.2135298e-05
1.3214846e-05
1.3528734e-05
1.3441147e-05
1.4209617e-05
1.0394804e-05
6.9391353e-06
5.9661828e-06
5.7491789e-06
4.4664147e-06
2.9626379e-06
1.9393187e-06
1.196425e-06
6.1192067e-07
2.5214927e-07
8.9789421e-08
2.8558584e-08
8.2889257e-09
2.2035013e-09
5.2890011e-10
1.108923e-10
1.9177801e-11
2.5133803e-12
2.6862564e-13
9.5195127e-14
1.0325653e-13
2.8925113e-05
1.620409e-05
1.0364733e-05
1.0861691e-05
1.2103289e-05
1.3181144e-05
1.3496403e-05
1.3406928e-05
1.4165983e-05
1.0376393e-05
6.9266587e-06
5.9549887e-06
5.7379098e-06
4.4508439e-06
2.9518898e-06
1.9319635e-06
1.1914466e-06
6.0859636e-07
2.5060397e-07
8.9198126e-08
2.8363431e-08
8.2313576e-09
2.1881102e-09
5.2520199e-10
1.1011764e-10
1.9044207e-11
2.4961487e-12
2.670759e-13
9.4892826e-14
1.0295374e-13
2.9040474e-05
1.627869e-05
1.0372482e-05
1.0835518e-05
1.2071347e-05
1.3147451e-05
1.3464054e-05
1.3372748e-05
1.412247e-05
1.0358073e-05
6.9142484e-06
5.9437629e-06
5.7266792e-06
4.4353232e-06
2.9411748e-06
1.9246319e-06
1.1864868e-06
6.0528903e-07
2.4906816e-07
8.8610872e-08
2.8169689e-08
8.1742161e-09
2.1728341e-09
5.215316e-10
1.0934877e-10
1.8911612e-11
2.4790453e-12
2.6553684e-13
9.4591698e-14
1.0265195e-13
2.9155469e-05
1.6353206e-05
1.0380646e-05
1.0809379e-05
1.2039481e-05
1.3113759e-05
1.3431673e-05
1.3338606e-05
1.4079087e-05
1.0339845e-05
6.9019137e-06
5.9324968e-06
5.7154844e-06
4.4198503e-06
2.9304944e-06
1.9173241e-06
1.181546e-06
6.019989e-07
2.4754204e-07
8.802777e-08
2.79774e-08
8.1175164e-09
2.1576778e-09
5.1789016e-10
1.0858599e-10
1.8780064e-11
2.4620765e-12
2.6400906e-13
9.429191e-14
1.0235136e-13
2.927008e-05
1.6427628e-05
1.0389222e-05
1.0783259e-05
1.2007695e-05
1.3080066e-05
1.3399261e-05
1.3304503e-05
1.4035826e-05
1.0321661e-05
6.8896169e-06
5.9212129e-06
5.7043219e-06
4.4044251e-06
2.9198472e-06
1.9100383e-06
1.1766226e-06
5.9872486e-07
2.4602486e-07
8.7448472e-08
2.7786435e-08
8.0612153e-09
2.1426288e-09
5.1427449e-10
1.0782859e-10
1.8649443e-11
2.445226e-12
2.6249118e-13
9.3993343e-14
1.0205185e-13
2.9384292e-05
1.6501946e-05
1.0398216e-05
1.0757126e-05
1.1975985e-05
1.3046377e-05
1.3366821e-05
1.3270438e-05
1.3992673e-05
1.0303478e-05
6.8773213e-06
5.9099344e-06
5.6931908e-06
4.3890471e-06
2.9092323e-06
1.9027757e-06
1.1717179e-06
5.9546779e-07
2.4451719e-07
8.6873244e-08
2.7596897e-08
8.0053488e-09
2.1276977e-09
5.1068735e-10
1.070772e-10
1.851986e-11
2.4285088e-12
2.6098455e-13
9.3696288e-14
1.0175374e-13
2.9498088e-05
1.6576152e-05
1.0407632e-05
1.0730978e-05
1.1944353e-05
1.3012684e-05
1.3334346e-05
1.3236416e-05
1.3949634e-05
1.0285295e-05
6.8650266e-06
5.8986606e-06
5.6820886e-06
4.3737126e-06
2.8986493e-06
1.8955357e-06
1.1668311e-06
5.9222716e-07
2.4301869e-07
8.6301912e-08
2.7408718e-08
7.9498924e-09
2.112877e-09
5.0712679e-10
1.0633138e-10
1.8391236e-11
2.4119144e-12
2.5948796e-13
9.3400189e-14
1.014564e-13
2.9611453e-05
1.6650235e-05
1.0417476e-05
1.0704836e-05
1.1912806e-05
1.2978989e-05
1.3301826e-05
1.3202433e-05
1.3906718e-05
1.0267113e-05
6.8527326e-06
5.8873907e-06
5.6710142e-06
4.3584227e-06
2.8880995e-06
1.8883183e-06
1.1619625e-06
5.8900301e-07
2.4152944e-07
8.5734531e-08
2.722192e-08
7.8948558e-09
2.0981703e-09
5.0359379e-10
1.0559133e-10
1.826361e-11
2.3954487e-12
2.5800234e-13
9.3105532e-14
1.0116037e-13
2.972437e-05
1.6724187e-05
1.0427733e-05
1.0678725e-05
1.1881357e-05
1.2945289e-05
1.3269261e-05
1.3168491e-05
1.3863913e-05
1.0248931e-05
6.8404391e-06
5.8761235e-06
5.6599678e-06
4.3431774e-06
2.8775805e-06
1.8811222e-06
1.157111e-06
5.8579457e-07
2.400489e-07
8.5170843e-08
2.7036405e-08
7.8402052e-09
2.0835674e-09
5.0008579e-10
1.0485652e-10
1.8136883e-11
2.3790983e-12
2.5652655e-13
9.2812228e-14
1.0086559e-13
2.9836828e-05
1.6797999e-05
1.04384e-05
1.0652614e-05
1.1850012e-05
1.2911591e-05
1.3236657e-05
1.3134589e-05
1.3821211e-05
1.023075e-05
6.8281455e-06
5.8648581e-06
5.6489473e-06
4.3279741e-06
2.867092e-06
1.8739488e-06
1.1522777e-06
5.8260275e-07
2.3857764e-07
8.461112e-08
2.6852277e-08
7.7859761e-09
2.0690787e-09
4.9660533e-10
1.0412749e-10
1.8011154e-11
2.3628758e-12
2.5506151e-13
9.2520277e-14
1.0057204e-13
2.9948811e-05
1.6871664e-05
1.0449486e-05
1.0626474e-05
1.1818766e-05
1.2877887e-05
1.3203999e-05
1.310073e-05
1.3778618e-05
1.021257e-05
6.8158518e-06
5.8535937e-06
5.6379494e-06
4.3128103e-06
2.8566349e-06
1.8667969e-06
1.1474613e-06
5.7942668e-07
2.3711515e-07
8.4055107e-08
2.666944e-08
7.7321364e-09
2.0546949e-09
4.9315012e-10
1.0340375e-10
1.7886335e-11
2.3467694e-12
2.5360581e-13
9.2229134e-14
1.0027911e-13
3.0060308e-05
1.6945172e-05
1.0460987e-05
1.06003e-05
1.1787629e-05
1.2844182e-05
1.3171278e-05
1.3066914e-05
1.3736144e-05
1.019439e-05
6.803558e-06
5.8423291e-06
5.6269747e-06
4.2976886e-06
2.8462087e-06
1.8596666e-06
1.1426628e-06
5.7626663e-07
2.3566161e-07
8.3502907e-08
2.6487935e-08
7.6787008e-09
2.0404205e-09
4.8972135e-10
1.0268556e-10
1.7762476e-11
2.3307865e-12
2.5216068e-13
9.1939518e-14
9.9987603e-14
3.0171307e-05
1.7018519e-05
1.0472908e-05
1.0574131e-05
1.1756622e-05
1.2810496e-05
1.31385e-05
1.3033138e-05
1.3693777e-05
1.0176213e-05
6.791264e-06
5.8310632e-06
5.6160222e-06
4.282607e-06
2.8358113e-06
1.8525576e-06
1.1378811e-06
5.7312205e-07
2.3421662e-07
8.2954323e-08
2.6307684e-08
7.6256431e-09
2.026248e-09
4.8631715e-10
1.0197251e-10
1.7639502e-11
2.3149175e-12
2.5072529e-13
9.1651228e-14
9.9697318e-14
3.0281797e-05
1.7091695e-05
1.0485245e-05
1.054798e-05
1.1725763e-05
1.2776827e-05
1.3105675e-05
1.2999399e-05
1.3651512e-05
1.0158038e-05
6.7789696e-06
5.8197951e-06
5.6050886e-06
4.267562e-06
2.8254441e-06
1.8454702e-06
1.1331167e-06
5.6999337e-07
2.3278049e-07
8.2409514e-08
2.6128749e-08
7.5729842e-09
2.0121834e-09
4.8293899e-10
1.0126493e-10
1.7517471e-11
2.2991698e-12
2.4930005e-13
9.13641e-14
9.9408048e-14
3.0391766e-05
1.7164693e-05
1.0498001e-05
1.0521867e-05
1.1695005e-05
1.2743133e-05
1.3072817e-05
1.2965701e-05
1.3609354e-05
1.0139865e-05
6.7666746e-06
5.8085237e-06
5.5941717e-06
4.2525546e-06
2.8151063e-06
1.8384033e-06
1.1283689e-06
5.6687985e-07
2.3135277e-07
8.1868256e-08
2.5951049e-08
7.5206979e-09
1.9982192e-09
4.7958495e-10
1.005624e-10
1.7396305e-11
2.2835325e-12
2.4788391e-13
9.1077939e-14
9.9119599e-14
3.0501207e-05
1.7237508e-05
1.0511187e-05
1.0495845e-05
1.1664208e-05
1.2709388e-05
1.3039985e-05
1.2932047e-05
1.3567303e-05
1.0121695e-05
6.7543792e-06
5.7972478e-06
5.5832704e-06
4.2375851e-06
2.8047977e-06
1.8313578e-06
1.1236387e-06
5.6378217e-07
2.2993386e-07
8.133074e-08
2.5774655e-08
7.4688074e-09
1.9843621e-09
4.7625681e-10
9.9865308e-11
1.7276082e-11
2.2680161e-12
2.4647814e-13
9.0793343e-14
9.8832632e-14
3.061011e-05
1.7310133e-05
1.0524815e-05
1.046988e-05
1.1633391e-05
1.2675614e-05
1.3007178e-05
1.2898439e-05
1.3525347e-05
1.0103528e-05
6.742083e-06
5.7859664e-06
5.5723821e-06
4.2226499e-06
2.7945174e-06
1.8243333e-06
1.1189247e-06
5.606995e-07
2.2852322e-07
8.079671e-08
2.5599468e-08
7.4172802e-09
1.9706028e-09
4.7295219e-10
9.9173138e-11
1.7156705e-11
2.2526082e-12
2.450814e-13
9.0509838e-14
9.8546632e-14
3.0718469e-05
1.7382564e-05
1.0538894e-05
1.0443994e-05
1.1602575e-05
1.2641825e-05
1.2974379e-05
1.2864874e-05
1.3483484e-05
1.0085363e-05
6.7297863e-06
5.7746784e-06
5.5615037e-06
4.2077478e-06
2.7842668e-06
1.8173298e-06
1.1142277e-06
5.576323e-07
2.2712114e-07
8.0266306e-08
2.542554e-08
7.3661339e-09
1.9569466e-09
4.6967248e-10
9.8486193e-11
1.7038231e-11
2.2373163e-12
2.4369446e-13
9.0227533e-14
9.8261704e-14
3.0826277e-05
1.7454794e-05
1.0553413e-05
1.0418202e-05
1.1571777e-05
1.2608029e-05
1.2941584e-05
1.2831353e-05
1.3441724e-05
1.0067203e-05
6.7174891e-06
5.7633829e-06
5.5506319e-06
4.1928798e-06
2.7740444e-06
1.8103465e-06
1.1095473e-06
5.5458016e-07
2.2572737e-07
7.9739392e-08
2.525282e-08
7.3153509e-09
1.943388e-09
4.6641622e-10
9.780415e-11
1.6920599e-11
2.2221327e-12
2.4231665e-13
8.9946374e-14
9.7977806e-14
3.0933529e-05
1.752682e-05
1.0568375e-05
1.0392489e-05
1.1540995e-05
1.2574231e-05
1.2908797e-05
1.2797875e-05
1.3400059e-05
1.0049045e-05
6.7051912e-06
5.7520785e-06
5.5397641e-06
4.1780446e-06
2.7638502e-06
1.8033848e-06
1.104884e-06
5.515436e-07
2.2434222e-07
7.9216127e-08
2.5081371e-08
7.2649532e-09
1.9299336e-09
4.6318513e-10
9.7127392e-11
1.6803877e-11
2.2070659e-12
2.4094885e-13
8.9666639e-14
9.7695236e-14
3.1040222e-05
1.7598636e-05
1.0583777e-05
1.0366833e-05
1.1510227e-05
1.2540427e-05
1.2876024e-05
1.2764438e-05
1.3358478e-05
1.0030891e-05
6.6928923e-06
5.7407645e-06
5.5288965e-06
4.1632387e-06
2.7536847e-06
1.7964429e-06
1.1002361e-06
5.4852139e-07
2.2296492e-07
7.8696159e-08
2.491106e-08
7.2148967e-09
1.9165709e-09
4.5997603e-10
9.6455233e-11
1.6687947e-11
2.1921e-12