/*--------------------------------*- C++ -*----------------------------------*\
| =========                 |                                                 |
| \\      /  F ield         | OpenFOAM: The Open Source CFD Toolbox           |
|  \\    /   O peration     | Version:  v2012                                 |
|   \\  /    A nd           | Website:  www.openfoam.com                      |
|    \\/     M anipulation  |                                                 |
\*---------------------------------------------------------------------------*/
FoamFile
{
    version     2.0;
    format      ascii;
    class       volScalarField;
    location    "900";
    object      omega;
}
// * * * * * * * * * * * * * * * * * * * * * * * * * * * * * * * * * * * * * //

dimensions      [0 0 -1 0 0 0 0];


internalField   nonuniform List<scalar> 
24000
(
6537.3828
15952.315
36931.869
64993.987
91998.737
115933.47
133024.2
139105.52
139145.73
158042.95
250729.59
452977.43
681552.47
1002414.6
1423296.9
1894392.2
2425977.3
3113664.8
4153050.3
5873392.1
8811517.4
13892799
22854283
39244770
71007511
1.3810656e+08
2.9940574e+08
7.7391682e+08
2.7322363e+09
1.7782004e+10
6530.0849
15880.363
36764.088
64819.624
91854.759
115822.58
132961.85
139110.85
139166.65
157992.26
250577.68
452814.34
681602.49
1002854.9
1423974.5
1895183.3
2426943.6
3115100.6
4155378.9
5877226.1
8817850.2
13903359
22872175
39275862
71063828
1.3821562e+08
2.9964076e+08
7.7452075e+08
2.7343577e+09
1.7795757e+10
6522.6342
15807.669
36598.494
64655.711
91731.097
115744.58
132935.61
139144.39
139200
157952.23
250458.51
452705.75
681673.5
1003265.9
1424480
1895488.7
2427045.1
3115471
4156872.4
5880915
8824950.1
13915511
22892254
39309585
71123361
1.3832924e+08
2.9988395e+08
7.7514414e+08
2.736546e+09
1.7809943e+10
6514.9227
15735.111
36433.505
64492.944
91607.481
115664.53
132903.39
139168.5
139226.36
157912.37
250344.88
452588.75
681705.37
1003589.6
1424762.3
1895408.5
2426643.7
3115140.9
4157236.5
5882755
8829263.6
13923799
22907141
39336092
71171903
1.3842375e+08
3.0008818e+08
7.7566959e+08
2.7383923e+09
1.7821915e+10
6506.9734
15662.66
36268.709
64330.251
91483.603
115584.19
132870.13
139191.4
139251.97
157874.58
250240.9
452489.75
681750.89
1003931.7
1425069.4
1895357.3
2426313.4
3114964
4157897.3
5885107.9
8834364.7
13933191
22923523
39364685
71223620
1.3852377e+08
3.0030359e+08
7.7622306e+08
2.7403365e+09
1.783452e+10
6498.8112
15590.427
36104.148
64167.479
91359.453
115503.49
132835.98
139213.31
139276.61
157837.75
250143.21
452402.97
681810.52
1004291.7
1425394.4
1895320.9
2425991.4
3114781.1
4158527.5
5887396.9
8839368
13942461
22939774
39393155
71275237
1.3862373e+08
3.0051902e+08
7.7677671e+08
2.7422817e+09
1.7847131e+10
6490.4495
15518.44
35939.812
64004.517
91235.023
115422.54
132801.31
139234.73
139300.79
157801.68
250050.5
452326.57
681882.78
1004668.6
1425739.4
1895305.5
2425690.2
3114621.4
4159189.4
5889733.9
8844443.6
13951838
22956186
39421875
71327270
1.3872445e+08
3.0073603e+08
7.7733442e+08
2.7442408e+09
1.7859831e+10
6481.8964
15446.711
35775.696
63841.313
91110.31
115341.33
132766.23
139255.8
139324.59
157766.14
249961.39
452257.53
681964
1005057.5
1426097.1
1895302.5
2425399.7
3114471.1
4159861.3
5892083.4
8849537.4
13961245
22972649
39450684
71379468
1.3882549e+08
3.0095374e+08
7.7789391e+08
2.746206e+09
1.7872572e+10
6473.1564
15375.243
35611.791
63677.841
90985.306
115259.88
132730.8
139276.63
139348.1
157730.94
249874.9
452193.67
682051.38
1005454.1
1426463
1895307.2
2425116.4
3114328.3
4160542
5894444.2
8854646.9
13970674
22989146
39479552
71431770
1.3892673e+08
3.0117189e+08
7.784545e+08
2.7481751e+09
1.7885339e+10
6464.2317
15304.036
35448.091
63514.084
90860.005
115178.16
132695.03
139297.26
139371.39
157695.99
249790.34
452133.44
682142.82
1005855.5
1426833.4
1895316.1
2424837.3
3114190.1
4161228.3
5896811.8
8859764.8
13980115
23005658
39508443
71484112
1.3902806e+08
3.0139021e+08
7.7901554e+08
2.7501461e+09
1.7898118e+10
6455.1238
15233.087
35284.591
63350.031
90734.4
115096.18
132658.97
139317.71
139394.52
157661.19
249707.22
452075.77
682236.86
1006259.7
1427205.5
1895326.4
2424559.8
3114054.4
4161918.1
5899183.3
8864885.5
13989556
23022171
39537331
71536445
1.3912936e+08
3.0160849e+08
7.795765e+08
2.7521168e+09
1.7910893e+10
6445.8336
15162.395
35121.286
63185.675
90608.482
115013.93
132622.62
139338.03
139417.49
157626.47
249625.16
452019.85
682332.52
1006665.1
1427577.8
1895336.7
2424283.1
3113920.8
4162611.2
5901557.7
8870007.1
13998996
23038677
39566206
71588753
1.392306e+08
3.0182663e+08
7.8013708e+08
2.754086e+09
1.7923659e+10
6436.3618
15091.954
34958.171
63021.007
90482.247
114931.4
132585.99
139358.22
139440.3
157591.8
249543.9
451965.11
682429.08
1007070.8
1427949.1
1895345.7
2424006.1
3113788.5
4163306.5
5903933.6
8875128
14008431
23055171
39595058
71641018
1.3933177e+08
3.0204459e+08
7.8069719e+08
2.7560533e+09
1.7936414e+10
6426.7094
15021.763
34795.243
62856.027
90355.689
114848.59
132549.11
139378.28
139462.95
157557.14
249463.24
451911.2
682526.01
1007476
1428318.3
1895352.3
2423727.7
3113656.4
4164003.2
5906310.4
8880247.2
14017859
23071650
39623882
71693234
1.3943284e+08
3.0226236e+08
7.8125682e+08
2.758019e+09
1.794916e+10
6416.8772
14951.818
34632.502
62690.727
90228.807
114765.5
132511.99
139398.23
139485.42
157522.48
249383.02
451857.79
682622.93
1007880.2
1428684.9
1895356
2423447.3
3113523.8
4164700.4
5908686.7
8885361.9
14027276
23088109
39652668
71745379
1.3953377e+08
3.0247985e+08
7.8181571e+08
2.7599825e+09
1.796189e+10
6406.8664
14882.117
34469.945
62525.108
90101.593
114682.12
132474.65
139418.07
139507.68
157487.8
249303.09
451804.71
682719.66
1008283.1
1429048.7
1895356.7
2423165.2
3113391.2
4165398.4
5911062.3
8890471.9
14036682
23104546
39681414
71797445
1.3963455e+08
3.0269699e+08
7.8237374e+08
2.7619429e+09
1.7974598e+10
6396.6782
14812.658
34307.573
62359.166
89974.048
114598.48
132437.11
139437.78
139529.71
157453.11
249223.37
451751.83
682816.08
1008684.5
1429409.3
1895354.2
2422881
3113258.2
4166096.5
5913436.5
8895576.5
14046075
23120958
39710115
71849432
1.3973517e+08
3.0291377e+08
7.8293082e+08
2.7638997e+09
1.7987284e+10
6386.314
14743.44
34145.383
62192.901
89846.166
114514.55
132399.38
139457.38
139551.49
157418.42
249143.74
451699.02
682911.97
1009084.2
1429766.6
1895348.3
2422594.9
3113125.1
4166795.8
5915810.9
8900677.6
14055457
23137349
39738778
71901349
1.3983565e+08
3.0313027e+08
7.8348718e+08
2.7658538e+09
1.7999953e+10
6375.7751
14674.463
33983.378
62026.312
89717.945
114430.36
132361.5
139476.87
139572.98
157383.71
249064.11
451646.19
683007.22
1009481.9
1430120.4
1895338.7
2422306.4
3112991.4
4167495.4
5918183.9
8905772.7
14064827
23153715
39767396
71953184
1.3993599e+08
3.0334645e+08
7.840427e+08
2.7678052e+09
1.8012605e+10
6365.0631
14605.724
33821.558
61859.399
89589.383
114345.9
132323.47
139496.24
139594.19
157348.98
248984.38
451593.26
683101.84
1009877.6
1430470.4
1895325.4
2422015.9
3112857.7
4168195.4
5920555.7
8910861.9
14074183
23170056
39795967
72004931
1.4003615e+08
3.0356227e+08
7.8459731e+08
2.7697537e+09
1.8025238e+10
6354.1795
14537.225
33659.923
61692.163
89460.474
114261.17
132285.33
139515.48
139615.2
157314.08
248904.47
451540.15
683195.67
1010271.3
1430816.6
1895308.3
2421723.1
3112723.5
4168896
5922926.4
8915945.5
14083525
23186370
39824489
72056587
1.4013612e+08
3.0377767e+08
7.8515089e+08
2.7716984e+09
1.8037845e+10
6343.1261
14468.965
33498.475
61524.603
89331.217
114176.18
132247.08
139534.59
139636.06
157278.91
248824.35
451486.83
683288.65
1010662.7
1431159
1895287.2
2421427.8
3112589.1
4169597.8
5925297.3
8921025.5
14092857
23202661
39852969
72108167
1.4023595e+08
3.0399274e+08
7.8570356e+08
2.7736396e+09
1.805043e+10
6331.9047
14400.946
33337.214
61356.721
89201.608
114090.92
132208.74
139553.59
139656.77
157243.45
248743.98
451433.25
683380.78
1011051.8
1431497.1
1895261.7
2421129.6
3112453.7
4170299.1
5927665.9
8926098.3
14102173
23218924
39881400
72159658
1.4033561e+08
3.0420747e+08
7.8625535e+08
2.7755776e+09
1.8062995e+10
6320.5175
14333.166
33176.142
61188.516
89071.647
114005.41
132170.33
139572.48
139677.33
157207.71
248663.35
451379.39
683472.08
1011438.7
1431831.5
1895232.5
2420829.2
3112317.9
4171001
5930033.6
8931165.7
14111477
23235164
39909788
72211071
1.4043512e+08
3.0442187e+08
7.8680631e+08
2.7775131e+09
1.8075544e+10
6308.9668
14265.626
33015.261
61019.99
88941.326
113919.64
132131.86
139591.25
139697.74
157171.67
248582.46
451325.28
683562.53
1011823.4
1432162
1895199.3
2420526.1
3112181.2
4171702.8
5932399.6
8936227.2
14120767
23251377
39938127
72262390
1.4053445e+08
3.0463589e+08
7.8735632e+08
2.7794455e+09
1.8088072e+10
6297.255
14198.325
32854.57
60851.142
88810.647
113833.62
132093.33
139609.91
139717.99
157135.32
248501.28
451270.96
683652.19
1012205.9
1432488.6
1895162.2
2420220.7
3112044.3
4172405.4
5934765.1
8941284.1
14130045
23267566
39966422
72313629
1.4063361e+08
3.0484954e+08
7.8790536e+08
2.7813742e+09
1.8100575e+10
6285.3839
14131.263
32694.071
60681.974
88679.605
113747.34
132054.77
139628.49
139738.08
157098.65
248419.8
451216.38
683741.08
1012586.2
1432811.3
1895121.3
2419913.1
3111906.8
4173107.9
5937128.5
8946333.8
14139308
23283728
39994667
72364779
1.407326e+08
3.0506281e+08
7.8845342e+08
2.7832992e+09
1.8113055e+10
6273.3559
14064.441
32533.767
60512.488
88548.2
113660.82
132016.19
139646.97
139758.01
157061.62
248337.96
451161.48
683829.13
1012964.4
1433130.4
1895076.9
2419603.6
3111769.7
4173811.8
5939492.1
8951379.6
14148561
23299868
40022873
72415856
1.4083146e+08
3.052758e+08
7.8900072e+08
2.7852215e+09
1.8125518e+10
6261.1734
13997.858
32373.659
60342.684
88416.428
113574.05
131977.61
139665.38
139777.78
157024.22
248255.77
451106.29
683916.28
1013340.2
1433445.4
1895028.3
2419291.4
3111631.7
4174515.7
5941853.9
8956419.4
14157799
23315982
40051032
72466847
1.4093015e+08
3.0548844e+08
7.8954716e+08
2.7871411e+09
1.8137964e+10
6248.839
13931.518
32213.751
60172.565
88284.288
113487.03
131939.04
139683.7
139797.37
156986.42
248173.19
451050.81
684002.62
1013713.7
1433756.2
1894975.6
2418976.9
3111493.6
4175220.6
5944215.6
8961455.2
14167027
23332074
40079150
72517760
1.4102868e+08
3.0570074e+08
7.9009277e+08
2.7890581e+09
1.8150392e+10
6236.3551
13865.42
32054.044
60002.131
88151.778
113399.77
131900.48
139701.94
139816.79
156948.21
248090.19
450995.01
684088.17
1014085.1
1434063.3
1894919.2
2418660.2
3111355
4175925.7
5946575.6
8966484.3
14176240
23348137
40107218
72568584
1.4112704e+08
3.0591265e+08
7.9063735e+08
2.7909711e+09
1.8162794e+10
6223.7244
13799.568
31894.541
59831.388
88018.895
113312.26
131861.98
139720.12
139836.03
156909.56
248006.77
450938.93
684172.93
1014454.2
1434366.6
1894859
2418341.3
3111216.5
4176632
5948935.8
8971509.7
14185443
23364181
40135248
72619335
1.4122525e+08
3.0612425e+08
7.9118109e+08
2.7928809e+09
1.8175175e+10
6210.9496
13733.962
31735.245
59660.334
87885.639
113224.52
131823.52
139738.23
139855.08
156870.46
247922.89
450882.59
684256.93
1014821.1
1434665.6
1894794.3
2418019.3
3111076.7
4177337.8
5951293.8
8976528.8
14194632
23380199
40163233
72670007
1.4132332e+08
3.0633554e+08
7.9172403e+08
2.7947878e+09
1.8187539e+10
6198.0336
13668.604
31576.412
59488.973
87752.004
113136.54
131785.14
139756.28
139873.95
156830.89
247838.55
450826.02
684340.27
1015185.9
1434961.2
1894726.3
2417695.5
3110937.1
4178044.8
5953652
8981544.8
14203812
23396199
40191183
72720610
1.4142126e+08
3.0654655e+08
7.9226628e+08
2.7966928e+09
1.819989e+10
6184.9791
13603.497
31418.063
59317.304
87617.991
113048.31
131746.84
139774.27
139892.64
156790.82
247753.7
450769.24
684423
1015548.8
1435253.3
1894654.7
2417369.6
3110797
4178752
5956008.7
8986554.5
14212978
23412172
40219085
72771128
1.4151902e+08
3.067572e+08
7.9280764e+08
2.7985948e+09
1.8212221e+10
6171.7891
13538.641
31260.202
59145.329
87483.596
112959.84
131708.65
139792.21
139911.14
156750.21
247668.34
450712.3
684505.16
1015909.8
1435541.6
1894579.5
2417041.7
3110657
4179460.2
5958365.2
8991560
14222133
23428123
40246947
72821571
1.4161664e+08
3.069675e+08
7.933481e+08
2.8004934e+09
1.8224529e+10
6158.4668
13474.036
31102.833
58973.051
87348.817
112871.14
131670.58
139810.11
139929.44
156709.03
247582.4
450655.17
684586.7
1016268.6
1435826
1894500.4
2416711.5
3110516.5
4180168.5
5960719.8
8996559.5
14231275
23444050
40274764
72871934
1.417141e+08
3.0717748e+08
7.9388767e+08
2.8023885e+09
1.8236815e+10
6145.0152
13409.683
30945.96
58800.467
87213.653
112782.19
131632.65
139827.96
139947.54
156667.23
247495.84
450597.86
684667.7
1016625.5
1436107.3
1894418.1
2416379.7
3110376.6
4180878.8
5963075.8
9001557.4
14240410
23459961
40302553
72922242
1.4181146e+08
3.0738723e+08
7.9442665e+08
2.8042815e+09
1.8249089e+10
6131.4378
13345.582
30789.584
58627.58
87078.098
112692.99
131594.87
139845.77
139965.44
156624.79
247408.61
450540.41
684748.2
1016980.5
1436384.5
1894332
2416045.6
3110236.2
4181589.1
5965430.2
9006549.1
14249531
23475847
40330295
72972465
1.4190866e+08
3.0759666e+08
7.9496482e+08
2.8061721e+09
1.8261347e+10
6117.7378
13281.736
30633.706
58454.39
86942.154
112603.54
131557.26
139863.55
139983.13
156581.65
247320.66
450482.85
684828.23
1017333.5
1436658
1894242.1
2415709.6
3110096.1
4182301
5967785.1
9011537.5
14258643
23491713
40358001
73022621
1.4200572e+08
3.0780578e+08
7.9550227e+08
2.8080605e+09
1.8273589e+10
6103.9185
13218.145
30478.33
58280.898
86805.815
112513.84
131519.84
139881.29
140000.62
156537.78
247231.93
450425.25
684907.85
1017684.7
1436927.9
1894148.3
2415370.9
3109955.2
4183012.7
5970138
9016519.6
14267741
23507554
40385662
73072696
1.4210261e+08
3.0801454e+08
7.9603877e+08
2.8099452e+09
1.8285807e+10
6089.9836
13154.812
30323.465
58107.105
86669.082
112423.89
131482.63
139899
140017.9
156493.12
247142.36
450367.69
684987.24
1018034.4
1437194.4
1894051.3
2415030.6
3109814.6
4183726.1
5972492
9021500.5
14276833
23523380
40413293
73122713
1.421994e+08
3.0822306e+08
7.9657459e+08
2.8118271e+09
1.8298008e+10
6075.9364
13091.736
30169.115
57933.012
86531.948
112333.67
131445.63
139916.67
140034.98
156447.64
247051.85
450310.25
685066.42
1018382.7
1437457.3
1893950.5
2414688.1
3109673.6
4184439.6
5974844.5
9026475.3
14285912
23539183
40440885
73172659
1.4229606e+08
3.084313e+08
7.9710968e+08
2.8137064e+09
1.8310193e+10
6061.7804
13028.921
30015.284
57758.619
86394.412
112243.19
131408.89
139934.32
140051.86
156401.28
246960.34
450253.02
685145.39
1018729.2
1437716.7
1893846.3
2414343.9
3109533.2
4185154.8
5977198.1
9031447.9
14294983
23554969
40468443
73222541
1.4239259e+08
3.0863929e+08
7.9764415e+08
2.815584e+09
1.8322366e+10
6047.519
12966.369
29861.976
57583.926
86256.474
112152.43
131372.4
139951.95
140068.56
156353.97
246867.69
450196.15
685224.25
1019074
1437972.6
1893738.4
2413997.2
3109391.8
4185869.6
5979549
9036413.4
14304040
23570728
40495956
73272344
1.4248896e+08
3.0884693e+08
7.981778e+08
2.817459e+09
1.8334523e+10
6033.1555
12904.081
29709.203
57408.939
86118.129
112061.4
131336.19
139969.55
140085.07
156305.65
246773.77
450139.81
685303.2
1019417.1
1438225.1
1893627.3
2413649
3109250.9
4186586.3
5981901.3
9041378
14313091
23586474
40523441
73322092
1.4258522e+08
3.0905431e+08
7.9871076e+08
2.8193314e+09
1.834666e+10
6018.6937
12842.06
29556.967
57233.654
85979.377
111970.07
131300.27
139987.13
140101.41
156256.25
246678.42
450084.2
685382.23
1019758.5
1438474.2
1893512.8
2413299
3109110.1
4187303.4
5984252.5
9046336.9
14322128
23602196
40550883
73371764
1.4268134e+08
3.0926138e+08
7.9924288e+08
2.8212002e+09
1.8358776e+10
6004.1373
12780.309
29405.272
57058.069
85840.209
111878.45
131264.67
140004.69
140117.6
156205.71
246581.43
450029.61
685461.44
1020098.3
1438720
1893395
2412947.4
3108970
4188022.6
5986605.2
9051294.5
14331161
23617905
40578300
73421383
1.4277736e+08
3.0946824e+08
7.9977441e+08
2.823067e+09
1.837088e+10
5989.49
12718.832
29254.119
56882.184
85700.628
111786.51
131229.4
140022.24
140133.66
156153.95
246482.55
449976.4
685540.98
1020436.4
1438962
1893273.3
2412593.2
3108828.8
4188741.3
5988955.3
9056245
14340179
23633588
40605672
73470926
1.4287324e+08
3.0967482e+08
8.0030524e+08
2.8249318e+09
1.8382971e+10
5974.756
12657.628
29103.512
56705.997
85560.629
111694.26
131194.47
140039.75
140149.59
156100.9
246381.46
449925.05
685620.94
1020772.9
1439200.8
1893148.6
2412237.9
3108688.7
4189462.3
5991307.2
9061195.2
14349192
23649258
40633019
73520421
1.42969e+08
3.0988115e+08
8.0083554e+08
2.8267951e+09
1.8395051e+10
5959.9389
12596.7
28953.459
56529.506
85420.211
111601.67
131159.91
140057.24
140165.45
156046.51
246277.81
449876.2
685701.32
1021107.8
1439436.2
1893020.4
2411880.6
3108548.5
4190183.8
5993658.2
9066140.2
14358192
23664905
40660324
73569838
1.4306462e+08
3.1008716e+08
8.0136499e+08
2.8286552e+09
1.840711e+10
5945.0421
12536.051
28803.966
56352.709
85279.37
111508.72
131125.72
140074.7
140181.24
155990.71
246171.14
449830.78
685782.19
1021441.2
1439668.1
1892888.7
2411521.3
3108408.4
4190906.8
5996010.1
9071082.9
14367185
23680537
40687598
73619197
1.4316013e+08
3.1029291e+08
8.0189369e+08
2.8305121e+09
1.8419148e+10
5930.0694
12475.681
28655.034
56175.604
85138.105
111415.41
131091.93
140092.13
140197.02
155933.47
246060.85
449789.92
685863.4
1021773
1439896.5
1892753.4
2411159.8
3108267.7
4191629.7
5998360
9076019.9
14376167
23696147
40714836
73668489
1.4325552e+08
3.104984e+08
8.0242172e+08
2.8323666e+09
1.8431171e+10
5915.0245
12415.596
28506.669
55998.19
84996.418
111321.72
131058.25
140109.51
140212.82
155875.51
245948.63
449751.4
685944.6
1022103.2
1440121.8
1892615.1
2410797.2
3108128.2
4192355
6000711.7
9080956.3
14385143
23711745
40742050
73717736
1.4335081e+08
3.1070372e+08
8.0294931e+08
2.8342198e+09
1.8443187e+10
5899.9113
12355.796
28358.875
55820.467
84854.304
111227.64
131024.63
140126.85
140228.67
155817.5
245836.21
449712.73
686025.5
1022431.7
1440343.6
1892473.2
2410432.4
3107988.3
4193080.5
6003062.3
9085887.5
14394108
23727320
40769221
73766909
1.4344595e+08
3.1090871e+08
8.0347614e+08
2.836071e+09
1.8455189e+10
5884.7332
12296.285
28211.663
55642.431
84711.767
111133.15
130991.05
140144.15
140244.57
155759.46
245723.58
449673.93
686106.19
1022758.7
1440561.9
1892327.8
2410065.8
3107848.8
4193807.7
6005413.8
9090816.5
14403064
23742879
40796363
73816025
1.4354098e+08
3.1111345e+08
8.0400235e+08
2.8379198e+09
1.8467175e+10
5869.4942
12237.065
28065.036
55464.078
84568.804
111038.23
130957.5
140161.4
140260.54
155701.39
245610.72
449634.96
686186.67
1023083.9
1440776.9
1892179
2409697.3
3107709
4194535.3
6007764.2
9095740.6
14412010
23758417
40823468
73865072
1.4363589e+08
3.113179e+08
8.0452773e+08
2.8397651e+09
1.8479138e+10
5854.1979
12178.139
27919
55285.408
84425.416
110942.87
130923.97
140178.6
140276.57
155643.27
245497.62
449595.82
686267
1023407.7
1440988.7
1892027
2409327.5
3107570.2
4195265.2
6010116.2
9100664.4
14420952
23773946
40850553
73914079
1.4373071e+08
3.1152218e+08
8.0505262e+08
2.8416085e+09
1.849109e+10
5838.848
12119.512
27773.56
55106.417
84281.607
110847.06
130890.44
140195.75
140292.67
155585.11
245384.26
449556.49
686347.18
1023730
1441196.8
1891871.4
2408955.5
3107431
4195995.1
6012466.8
9105582.7
14429882
23789452
40877598
73963017
1.4382541e+08
3.1172621e+08
8.0557689e+08
2.84345e+09
1.8503029e+10
5823.448
12061.185
27628.722
54927.103
84137.38
110750.78
130856.91
140212.86
140308.85
155526.93
245270.62
449516.95
686427.23
1024050.7
1441401.6
1891712.5
2408581.9
3107292.5
4196727.1
6014819.2
9110500.1
14438806
23804944
40904616
74011906
1.4391999e+08
3.1193e+08
8.0610063e+08
2.8452903e+09
1.8514961e+10
5808.0014
12003.16
27484.495
54747.464
83992.74
110654.02
130823.34
140229.91
140325.1
155468.71
245156.7
449477.17
686507.2
1024369.9
1441603.1
1891550
2408206.4
3107153.7
4197459.6
6017170.3
9115412.2
14447718
23820416
40931599
74060728
1.4401446e+08
3.1213351e+08
8.0662371e+08
2.8471283e+09
1.8526877e+10
5792.512
11945.441
27340.885
54567.492
83847.69
110556.75
130789.72
140246.9
140341.44
155410.46
245042.49
449437.18
686587.23
1024687.8
1441801.1
1891384.1
2407829.3
3107015.6
4198194
6019522.7
9120323.8
14456626
23835877
40958557
74109503
1.4410883e+08
3.123368e+08
8.0714614e+08
2.8489633e+09
1.8538774e+10
5776.9832
11888.03
27197.896
54387.183
83702.243
110458.96
130756.02
140263.83
140357.86
155352.19
244927.98
449396.96
686667.29
1025004.4
1441995.8
1891214.9
2407450.3
3106877.5
4198928.8
6021874.3
9125230.7
14465524
23851318
40985483
74158217
1.4420309e+08
3.1253986e+08
8.0766788e+08
2.8507956e+09
1.8550653e+10
5761.4187
11830.929
27055.53
54206.533
83556.402
110360.66
130722.21
140280.71
140374.38
155293.89
244813.13
449356.46
686747.43
1025319.7
1442187.3
1891042.4
2407070
3106740.4
4199666.1
6024228.2
9130137.7
14474417
23866748
41012386
74206890
1.4429726e+08
3.1274276e+08
8.0818925e+08
2.8526268e+09
1.8562526e+10
5745.8216
11774.138
26913.796
54025.537
83410.036
110262.06
130688.27
140297.52
140391
155235.56
244697.92
449315.59
686827.67
1025633.6
1442375.2
1890866.2
2406687.6
3106602.8
4200403.7
6026580.6
9135039.3
14483299
23882157
41039252
74255498
1.443913e+08
3.1294539e+08
8.0870998e+08
2.8544564e+09
1.8574388e+10
5730.1955
11717.661
26772.702
53844.198
83263.146
110163.1
130654.19
140314.26
140407.72
155177.2
244582.35
449274.33
686908.03
1025946.4
1442559.7
1890686.7
2406303.8
3106466.4
4201143.8
6028934.9
9139940.8
14492177
23897556
41066097
74304066
1.4448526e+08
3.1314782e+08
8.0923028e+08
2.8562847e+09
1.8586242e+10
5714.5438
11661.497
26632.252
53662.519
83115.716
110063.76
130619.98
140330.94
140424.54
155118.81
244466.38
449232.63
686988.52
1026257.8
1442740.7
1890503.7
2405918.2
3106330.1
4201884.6
6031288.9
9144838.7
14501046
23912938
41092911
74352574
1.4457912e+08
3.1335001e+08
8.097499e+08
2.8581101e+09
1.8598076e+10
5698.8696
11605.651
26492.451
53480.5
82967.735
109964.03
130585.61
140347.56
140441.48
155060.38
244350.03
449190.44
687069.24
1026568
1442918.2
1890317.2
2405531.1
3106194.5
4202627.5
6033644.9
9149736.4
14509911
23928310
41119705
74401042
1.4467289e+08
3.1355201e+08
8.1026895e+08
2.859933e+09
1.8609894e+10
5683.1758
11550.123
26353.303
53298.146
82819.186
109863.88
130551.08
140364.1
140458.53
155001.92
244233.25
449147.69
687150.23
1026877.2
1443092
1890126.9
2405142
3106058.5
4203370.7
6035999.5
9154629.2
14518766
23943662
41146465
74449452
1.4476656e+08
3.1375382e+08
8.1078748e+08
2.861754e+09
1.8621702e+10
5667.4653
11494.915
26214.817
53115.461
82670.064
109763.3
130516.37
140380.57
140475.7
154943.43
244116.07
449104.35
687231.54
1027185.5
1443262.6
1889933.8
2404752
3105924.2
4204117
6038356.8
9159522.7
14527617
23959006
41173210
74497834
1.4486016e+08
3.1395547e+08
8.1130569e+08
2.8635746e+09
1.8633506e+10
5651.7409
11440.029
26077
52932.446
82520.35
109662.27
130481.47
140396.98
140493
154884.91
243998.46
449060.36
687313.2
1027492.8
1443429.7
1889737.2
2404360.3
3105790.2
4204864
6040713.8
9164413.2
14536461
23974335
41199925
74546160
1.4495365e+08
3.141569e+08
8.1182339e+08
2.8653938e+09
1.8645301e+10
5636.0052
11385.465
25939.859
52749.106
82370.034
109560.76
130446.37
140413.3
140510.41
154826.36
243880.42
449015.64
687395.29
1027799.3
1443593.2
1889537.2
2403967.2
3105656.7
4205612.9
6043072.4
9169303.1
14545302
23989656
41226621
74594448
1.4504707e+08
3.1435816e+08
8.1234066e+08
2.8672112e+09
1.8657085e+10
5620.261
11331.227
25803.398
52565.444
82219.102
109458.76
130411.05
140429.54
140527.95
154767.78
243761.94
448970.1
687477.79
1028105.2
1443753.3
1889333.9
2403572.6
3105523.4
4206362.7
6045430.6
9174189.3
14554132
24004958
41253288
74642681
1.4514039e+08
3.1455918e+08
8.128572e+08
2.8690252e+09
1.8668847e+10
5604.5109
11277.314
25667.619
52381.465
82067.543
109356.25
130375.49
140445.69
140545.63
154709.16
243643.04
448923.7
687560.75
1028410.8
1443910.3
1889128.1
2403177.4
3105392.2
4207116.3
6047792.6
9179078.1
14562964
24020257
41279945
74690897
1.4523367e+08
3.1476013e+08
8.1337351e+08
2.8708382e+09
1.8680604e+10
5588.7574
11223.728
25532.53
52197.176
81915.347
109253.21
130339.68
140461.76
140563.43
154650.52
243523.7
448876.37
687644.12
1028716
1444063.9
1888919
2402780.8
3105261
4207870.1
6050153.5
9183963.1
14571786
24035540
41306575
74739066
1.4532686e+08
3.149609e+08
8.1388938e+08
2.8726502e+09
1.8692355e+10
5573.0025
11170.469
25398.138
52012.581
81762.5
109149.6
130303.61
140477.72
140581.36
154591.83
243403.9
448828.01
687727.81
1029021.5
1444214.2
1888707.2
2402383.4
3105130.9
4208625.9
6052516.2
9188847.7
14580605
24050815
41333186
74787197
1.4541996e+08
3.1516149e+08
8.1440487e+08
2.8744613e+09
1.8704102e+10
5557.2483
11117.536
25264.448
51827.685
81608.992
109045.42
130267.24
140493.58
140599.42
154533.1
243283.66
448778.54
687811.6
1029327.4
1444361.6
1888493
2401985
3105001.5
4209383.6
6054879.6
9193730.1
14589418
24066076
41359773
74835282
1.4551299e+08
3.1536189e+08
8.1491994e+08
2.876271e+09
1.8715841e+10
5541.4967
11064.928
25131.463
51642.494
81454.81
108940.64
130230.57
140509.33
140617.62
154474.32
243162.97
448728.07
687895.29
1029634
1444506.3
1888276.5
2401586.3
3104874.4
4210145.2
6057247.4
9198616.2
14598232
24081336
41386355
74883353
1.4560599e+08
3.155622e+08
8.1543462e+08
2.8780784e+09
1.8727567e+10
5525.7495
11012.645
24999.184
51457.015
81299.944
108835.24
130193.57
140524.96
140635.94
154415.49
243041.82
448677.29
687979.03
1029939.5
1444648.1
1888057.2
2401186.3
3104747.4
4210906.9
6059613.8
9203498
14607037
24096580
41412908
74931375
1.4569888e+08
3.1576231e+08
8.1594869e+08
2.8798831e+09
1.8739277e+10
5510.0083
10960.686
24867.616
51271.257
81144.386
108729.2
130156.23
140540.45
140654.4
154356.6
242920.17
448626.16
688062.82
1030244
1444787.4
1887835.8
2400785.9
3104621.8
4211671.2
6061982.7
9208380.8
14615841
24111818
41439451
74979377
1.4579174e+08
3.1596233e+08
8.1646253e+08
2.881687e+09
1.8750986e+10
5494.2745
10909.05
24736.765
51085.226
80988.126
108622.48
130118.52
140555.81
140672.99
154297.64
242798
448574.68
688146.66
1030547.4
1444924.1
1887612
2400384.5
3104497
4212437.6
6064352.9
9213262
14624639
24127045
41465970
75027335
1.4588449e+08
3.1616215e+08
8.1697592e+08
2.8834898e+09
1.8762693e+10
5478.5494
10857.736
24606.637
50898.935
80831.159
108515.08
130080.43
140571.02
140691.72
154238.61
242675.3
448522.87
688230.62
1030849.9
1445058.3
1887385.9
2399982.8
3104374.4
4213207.7
6066727.4
9218147.4
14633440
24142273
41492485
75075279
1.4597723e+08
3.1636188e+08
8.1748911e+08
2.8852921e+09
1.87744e+10
5462.8344
10806.741
24477.233
50712.389
80673.472
108406.97
130041.93
140586.07
140710.57
154179.49
242552
448470.66
688314.65
1031151.4
1445189.9
1887157.4
2399580.1
3104252.1
4213978.4
6069101.1
9223029.4
14642233
24157486
41518979
75123181
1.4606989e+08
3.1656143e+08
8.1800174e+08
2.8870916e+09
1.8786096e+10
5447.1303
10756.072
24348.555
50525.599
80515.061
108298.12
130002.99
140600.96
140729.55
154120.3
242428.09
448418.05
688398.77
1031452
1445319.1
1886927
2399177.1
3104131.5
4214752.1
6071478.1
9227913.4
14651026
24172696
41545460
75171061
1.4616249e+08
3.1676084e+08
8.1851379e+08
2.8888878e+09
1.8797777e+10
5431.4382
10705.726
24220.606
50338.577
80355.919
108188.53
129963.61
140615.67
140748.66
154061.01
242303.54
448365
688483.02
1031751.6
1445445.7
1886693.9
2398772.8
3104011.4
4215527.5
6073856
9232795.8
14659814
24187894
41571923
75218907
1.4625502e+08
3.1696011e+08
8.1902541e+08
2.8906819e+09
1.8809453e+10
5415.7585
10655.7
24093.39
50151.334
80196.043
108078.15
129923.76
140630.18
140767.89
154001.63
242178.33
448311.56
688567.46
1032050.5
1445569.9
1886458.7
2398368.3
3103893.5
4216306.6
6076238.1
9237682
14668605
24203094
41598382
75266741
1.4634751e+08
3.1715927e+08
8.1953673e+08
2.892475e+09
1.8821134e+10
5400.0918
10605.992
23966.91
49963.883
80035.429
107966.98
129883.41
140644.49
140787.24
153942.15
242052.42
448257.69
688652.07
1032348.5
1445691.8
1886221.3
2397963.1
3103776.3
4217086.9
6078620.6
9242566.4
14677390
24218283
41624818
75314528
1.4643991e+08
3.173582e+08
8.2004746e+08
2.894266e+09
1.8832812e+10
5384.4387
10556.597
23841.172
49776.234
79874.069
107855
129842.55
140658.6
140806.71
153882.56
241925.78
448203.4
688736.94
1032645.9
1445811.5
1885982.1
2397557.5
3103660.6
4217870.4
6081006.8
9247454
14686177
24233470
41651252
75362304
1.4653229e+08
3.1755704e+08
8.2055784e+08
2.896055e+09
1.8844492e+10
5368.7994
10507.513
23716.175
49588.4
79711.966
107742.17
129801.15
140672.47
140826.28
153822.87
241798.38
448148.65
688822.07
1032942.6
1445928.8
1885740.2
2397150.5
3103545.4
4218655.1
6083393.4
9252339.7
14694957
24248646
41677664
75410041
1.4662458e+08
3.1775565e+08
8.2106738e+08
2.8978391e+09
1.8856158e+10
5353.1741
10458.736
23591.918
49400.394
79549.11
107628.49
129759.18
140686.1
140845.97
153763.06
241670.2
448093.44
688907.49
1033238.8
1446044
1885496.6
2396743.7
3103432.5
4219443.8
6085784.4
9257229
14703741
24263823
41704073
75457765
1.4671683e+08
3.1795414e+08
8.2157632e+08
2.8996196e+09
1.8867818e+10
5337.5631
10410.262
23468.402
49212.228
79385.507
107513.92
129716.64
140699.48
140865.76
153703.12
241541.2
448037.75
688993.19
1033534.3
1446157.2
1885251
2396336.3
3103320.6
4220234.2
6088176.7
9262118.1
14712521
24278992
41730464
75505455
1.4680899e+08
3.1815243e+08
8.2208464e+08
2.901397e+09
1.887948e+10
5321.9663
10362.085
23345.63
49023.919
79221.154
107398.46
129673.48
140712.6
140885.65
153643.05
241411.35
447981.59
689079.29
1033829.4
1446268.4
1885003.6
2395928.3
3103209.9
4221027.5
6090572.5
9267010.3
14721304
24294160
41756846
75553117
1.4690108e+08
3.183505e+08
8.2259227e+08
2.9031714e+09
1.8891147e+10
5306.3835
10314.2
23223.604
48835.478
79056.052
107282.08
129629.69
140725.43
140905.64
153582.86
241280.63
447924.91
689165.76
1034124.2
1446377.3
1884753.8
2395519.3
3103100
4221822.2
6092969
9271901.5
14730082
24309318
41783213
75600743
1.469931e+08
3.1854834e+08
8.2309916e+08
2.9049419e+09
1.8902817e+10
5290.8145
10266.603
23102.324
48646.919
78890.203
107164.77
129585.24
140737.98
140925.72
153522.52
241149
447867.72
689252.61
1034418.6