/*--------------------------------*- C++ -*----------------------------------*\
| =========                 |                                                 |
| \\      /  F ield         | OpenFOAM: The Open Source CFD Toolbox           |
|  \\    /   O peration     | Version:  v2012                                 |
|   \\  /    A nd           | Website:  www.openfoam.com                      |
|    \\/     M anipulation  |                                                 |
\*---------------------------------------------------------------------------*/
FoamFile
{
    version     2.0;
    format      ascii;
    class       surfaceScalarField;
    location    "900";
    object      phi;
}
// * * * * * * * * * * * * * * * * * * * * * * * * * * * * * * * * * * * * * //

dimensions      [1 0 -1 0 0 0 0];
oriented        oriented;


internalField   nonuniform List<scalar> 
47170
(
-1.0188506e-08
-4.3913352e-05
-1.5537871e-08
-3.5914985e-05
-1.2305973e-08
-2.8012361e-05
-4.1968045e-09
-2.0196415e-05
2.115246e-09
-1.3679918e-05
5.2627019e-09
-9.0312769e-06
6.1406031e-09
-5.9889992e-06
5.8030054e-09
-4.0436113e-06
4.9875341e-09
-2.817133e-06
4.0410273e-09
-1.9795543e-06
3.1387521e-09
-1.35811e-06
2.4227856e-09
-9.2173545e-07
1.8696914e-09
-6.3531568e-07
1.4267138e-09
-4.4237723e-07
1.0733259e-09
-3.0588152e-07
7.9722616e-10
-2.088169e-07
5.8432986e-10
-1.4128317e-07
4.2233911e-10
-9.4856147e-08
3.0039274e-10
-6.3223034e-08
2.1011441e-10
-4.1900812e-08
1.437135e-10
-2.764052e-08
9.5724265e-11
-1.8126941e-08
6.1557297e-11
-1.1784249e-08
3.7940389e-11
-7.5610621e-09
2.2059572e-11
-4.7577896e-09
1.1820298e-11
-2.9072095e-09
5.5922518e-12
-1.6958707e-09
2.1122331e-12
-9.1274642e-10
4.6610635e-13
-4.1546941e-10
-1.0794127e-10
-1.128253e-08
-4.3902069e-05
-1.7444899e-08
-3.5908823e-05
-1.3718764e-08
-2.8016087e-05
-4.1014743e-09
-2.0206033e-05
3.5351971e-09
-1.3687555e-05
7.1090522e-09
-9.0348508e-06
7.973845e-09
-5.9898642e-06
7.3144347e-09
-4.0429519e-06
6.0076031e-09
-2.8158264e-06
4.6703657e-09
-1.978217e-06
3.5728592e-09
-1.3570127e-06
2.740361e-09
-9.2090287e-07
2.0982422e-09
-6.3467371e-07
1.5838072e-09
-4.418627e-07
1.1703113e-09
-3.0546812e-07
8.4776102e-10
-2.0849424e-07
6.0466833e-10
-1.4104013e-07
4.2477999e-10
-9.4676155e-08
2.9362392e-10
-6.3091895e-08
1.9969224e-10
-4.1806804e-08
1.3310827e-10
-2.7573934e-08
8.6601693e-11
-1.8080382e-08
5.4588133e-11
-1.1752224e-08
3.3054397e-11
-7.5394974e-09
1.8928802e-11
-4.7436614e-09
1.0026305e-11
-2.8982866e-09
4.6595247e-12
-1.6905262e-09
1.7111918e-12
-9.0981177e-10
3.5081644e-13
-4.1411874e-10
-1.0759046e-10
-1.1658856e-08
-4.389041e-05
-1.7984152e-08
-3.5902497e-05
-1.4034542e-08
-2.8020036e-05
-4.0291026e-09
-2.0216038e-05
3.9957319e-09
-1.369558e-05
7.6442644e-09
-9.0384993e-06
8.428528e-09
-5.9906486e-06
7.6336868e-09
-4.042157e-06
6.1847982e-09
-2.8143776e-06
4.7273625e-09
-1.9767595e-06
3.5364942e-09
-1.355822e-06
2.6305902e-09
-9.1999689e-07
1.9380802e-09
-6.3398129e-07
1.3882968e-09
-4.4131284e-07
9.5421035e-10
-3.0503411e-07
6.3021242e-10
-2.0817017e-07
4.0137719e-10
-1.4081136e-07
2.466249e-10
-9.4521361e-08
1.4654462e-10
-6.2991866e-08
8.485181e-11
-4.1745088e-08
4.8016267e-11
-2.7537136e-08
2.6610534e-11
-1.805897e-08
1.4369051e-11
-1.1740009e-08
7.5312486e-12
-7.5326598e-09
3.7687138e-12
-4.739913e-09
1.7623425e-12
-2.8962877e-09
7.382523e-13
-1.6895035e-09
2.4863513e-13
-9.0932465e-10
4.7400957e-14
-4.1391928e-10
-1.0754306e-10
-1.1929489e-08
-4.3878481e-05
-1.8368504e-08
-3.5896058e-05
-1.426339e-08
-2.8024142e-05
-3.9933793e-09
-2.0226308e-05
4.2876102e-09
-1.3703861e-05
7.9904864e-09
-9.0422022e-06
8.7346159e-09
-5.9913928e-06
7.8838995e-09
-4.0413063e-06
6.3773521e-09
-2.8128712e-06
4.8631248e-09
-1.9752452e-06
3.6277879e-09
-1.3545867e-06
2.6939517e-09
-9.1906298e-07
1.9886793e-09
-6.3327609e-07
1.4315706e-09
-4.4075567e-07
9.9481829e-10
-3.0459742e-07
6.736439e-10
-2.0784895e-07
4.4743822e-10
-1.4058521e-07
2.9251519e-10
-9.4366403e-08
1.8878627e-10
-6.2888183e-08
1.2074579e-10
-4.1677033e-08
7.6378091e-11
-2.7492801e-08
4.7586524e-11
-1.8030177e-08
2.8958731e-11
-1.1721404e-08
1.704963e-11
-7.5207591e-09
9.5520144e-12
-4.7324336e-09
4.9772073e-12
-2.8917179e-09
2.287285e-12
-1.6868367e-09
8.3504829e-13
-9.078885e-10
1.6980204e-13
-4.1326545e-10
-1.0737325e-10
-1.2080832e-08
-4.38664e-05
-1.8569924e-08
-3.5889569e-05
-1.438964e-08
-2.8028322e-05
-3.9941643e-09
-2.0236704e-05
4.4346004e-09
-1.3712289e-05
8.1694924e-09
-9.0459371e-06
8.8969111e-09
-5.9921202e-06
8.0215832e-09
-4.0404309e-06
6.4862545e-09
-2.8113359e-06
4.9408246e-09
-1.9736997e-06
3.6798849e-09
-1.3533258e-06
2.7272059e-09
-9.1811025e-07
2.0102675e-09
-6.3255922e-07
1.4451641e-09
-4.4019053e-07
1.0024301e-09
-3.0415476e-07
6.7702644e-10
-2.0752353e-07
4.4772915e-10
-1.4035599e-07
2.905973e-10
-9.4209267e-08
1.8563483e-10
-6.2783283e-08
1.1725094e-10
-4.1608646e-08
7.314298e-11
-2.7448736e-08
4.4934866e-11
-1.8001967e-08
2.6969046e-11
-1.1703462e-08
1.5675778e-11
-7.5094623e-09
8.6734269e-12
-4.7254381e-09
4.4574231e-12
-2.8875e-09
2.028054e-12
-1.6844034e-09
7.3470813e-13
-9.0659082e-10
1.5138309e-13
-4.1267904e-10
-1.0722187e-10
-1.2169544e-08
-4.385423e-05
-1.8690626e-08
-3.5883048e-05
-1.4484147e-08
-2.8032529e-05
-4.0208664e-09
-2.0247167e-05
4.5056596e-09
-1.3720816e-05
8.2679372e-09
-9.0496993e-06
8.9925678e-09
-5.9928449e-06
8.1106301e-09
-4.0395489e-06
6.5615413e-09
-2.8097869e-06
4.9982206e-09
-1.9721364e-06
3.7223222e-09
-1.35205e-06
2.7584863e-09
-9.1714637e-07
2.0337682e-09
-6.3183456e-07
1.463343e-09
-4.3962006e-07
1.0167293e-09
-3.0370821e-07
6.8829629e-10
-2.0719507e-07
4.5656557e-10
-1.4012431e-07
2.9742769e-10
-9.4050111e-08
1.9086068e-10
-6.267676e-08
1.2113584e-10
-4.153891e-08
7.5948169e-11
-2.7403575e-08
4.6882833e-11
-1.7972894e-08
2.8274169e-11
-1.1684866e-08
1.6506101e-11
-7.4976919e-09
9.1747154e-12
-4.7181141e-09
4.7419854e-12
-2.8830657e-09
2.1655115e-12
-1.6818358e-09
7.8680483e-13
-9.0521734e-10
1.6092785e-13
-4.1205688e-10
-1.0706094e-10
-1.2219921e-08
-4.384201e-05
-1.8765766e-08
-3.5876502e-05
-1.45654e-08
-2.8036729e-05
-4.0668806e-09
-2.0257666e-05
4.5299272e-09
-1.3729413e-05
8.3174092e-09
-9.0534868e-06
9.0472694e-09
-5.9935748e-06
8.1670318e-09
-4.0386687e-06
6.6108265e-09
-2.8082307e-06
5.0356992e-09
-1.9705612e-06
3.7500454e-09
-1.3507644e-06
2.7786848e-09
-9.1617497e-07
2.0486048e-09
-6.3110453e-07
1.4743901e-09
-4.3904582e-07
1.0247562e-09
-3.0325862e-07
6.94122e-10
-2.0686441e-07
4.6065426e-10
-1.398909e-07
3.0023641e-10
-9.3889681e-08
1.9273747e-10
-6.2569299e-08
1.2234671e-10
-4.1468514e-08
7.6721616e-11
-2.7357976e-08
4.7359558e-11
-1.7943531e-08
2.8557849e-11
-1.1666082e-08
1.6666602e-11
-7.4858016e-09
9.2589487e-12
-4.7107152e-09
4.7757971e-12
-2.8785861e-09
2.1808467e-12
-1.6792424e-09
7.9194489e-13
-9.0382996e-10
1.6252711e-13
-4.1142854e-10
-1.0689842e-10
-1.2248911e-08
-4.3829761e-05
-1.8818034e-08
-3.5869933e-05
-1.4644963e-08
-2.8040902e-05
-4.1261501e-09
-2.0268184e-05
4.5254573e-09
-1.3738064e-05
8.3378183e-09
-9.0572991e-06
9.0765739e-09
-5.9943136e-06
8.2023638e-09
-4.0377944e-06
6.6428815e-09
-2.8066712e-06
5.0596082e-09
-1.9689779e-06
3.76766e-09
-1.3494725e-06
2.7913741e-09
-9.1519864e-07
2.0579952e-09
-6.303712e-07
1.4812487e-09
-4.3846904e-07
1.0299822e-09
-3.028074e-07
6.9794851e-10
-2.0653235e-07
4.6345096e-10
-1.3965643e-07
3.0225831e-10
-9.3728468e-08
1.941617e-10
-6.2461228e-08
1.2333322e-10
-4.1397674e-08
7.7395003e-11
-2.7312054e-08
4.7806124e-11
-1.7913939e-08
2.88528e-11
-1.1647138e-08
1.6851336e-11
-7.4738029e-09
9.3729072e-12
-4.7032446e-09
4.845552e-12
-2.8740608e-09
2.214387e-12
-1.6766214e-09
8.0473689e-13
-9.0242737e-10
1.6438858e-13
-4.107932e-10
-1.0673403e-10
-1.2266459e-08
-4.3817495e-05
-1.8859331e-08
-3.586334e-05
-1.4726217e-08
-2.8045035e-05
-4.1955608e-09
-2.0278715e-05
4.5021095e-09
-1.3746762e-05
8.3397501e-09
-9.0611368e-06
9.0896834e-09
-5.9950635e-06
8.2236603e-09
-4.0369284e-06
6.663309e-09
-2.8051109e-06
5.0740322e-09
-1.9673886e-06
3.7781119e-09
-1.3481766e-06
2.7986938e-09
-9.142192e-07
2.0631304e-09
-6.2963568e-07
1.4849783e-09
-4.3789087e-07
1.0328182e-09
-3.0235529e-07
7.0006347e-10
-2.0619959e-07
4.6501055e-10
-1.3942144e-07
3.0335229e-10
-9.3566808e-08
1.9493039e-10
-6.2352851e-08
1.2386298e-10
-4.1326603e-08
7.772814e-11
-2.7265949e-08
4.8008875e-11
-1.7884215e-08
2.8959172e-11
-1.1628104e-08
1.6904113e-11
-7.4617427e-09
9.3897788e-12
-4.6957339e-09
4.8421085e-12
-2.8695099e-09
2.2089652e-12
-1.673985e-09
8.0193561e-13
-9.0101645e-10
1.6542949e-13
-4.1015393e-10
-1.065686e-10
-1.2278524e-08
-4.3805216e-05
-1.8896288e-08
-3.5856722e-05
-1.4810485e-08
-2.8049121e-05
-4.2724671e-09
-2.0289253e-05
4.4658921e-09
-1.37555e-05
8.3289774e-09
-9.0649998e-06
9.0922123e-09
-5.9958268e-06
8.2356855e-09
-4.0360718e-06
6.6759317e-09
-2.8035512e-06
5.0818901e-09
-1.9657945e-06
3.783526e-09
-1.3468783e-06
2.8022979e-09
-9.1323794e-07
2.065357e-09
-6.2889878e-07
1.4865667e-09
-4.3731206e-07
1.0338295e-09
-3.019026e-07
7.0086204e-10
-2.058666e-07
4.6560492e-10
-1.3918622e-07
3.0381279e-10
-9.3405002e-08
1.9529361e-10
-6.2244364e-08
1.2413426e-10
-4.1255433e-08
7.7930465e-11
-2.7219763e-08
4.8151775e-11
-1.7854427e-08
2.9061556e-11
-1.1609022e-08
1.6972514e-11
-7.4496486e-09
9.4361142e-12
-4.6882006e-09
4.8738376e-12
-2.8649446e-09
2.2254118e-12
-1.6713398e-09
8.0847463e-13
-8.9960066e-10
1.6603254e-13
-4.0951231e-10
-1.0640257e-10
-1.2288063e-08
-4.3792928e-05
-1.8932114e-08
-3.5850078e-05
-1.4898616e-08
-2.8053154e-05
-4.3551527e-09
-2.0299797e-05
4.4203341e-09
-1.3764276e-05
8.3098504e-09
-9.0688893e-06
9.0868189e-09
-5.9966038e-06
8.2411088e-09
-4.0352261e-06
6.6830024e-09
-2.8019931e-06
5.0850883e-09
-1.9641966e-06
3.7852729e-09
-1.3455785e-06
2.8031149e-09
-9.1225576e-07
2.065671e-09
-6.2816138e-07
1.4865719e-09
-4.3673294e-07
1.0339411e-09
-3.0145001e-07
7.0096506e-10
-2.0553361e-07
4.657435e-10
-1.3895104e-07
3.0398465e-10
-9.3243233e-08
1.954523e-10
-6.213586e-08
1.2426114e-10
-4.1184234e-08
7.8035245e-11
-2.7173556e-08
4.8227717e-11
-1.7824616e-08
2.91122e-11
-1.1589918e-08
1.7003153e-11
-7.437538e-09
9.452577e-12
-4.6806554e-09
4.8786431e-12
-2.8603716e-09
2.2282078e-12
-1.6686898e-09
8.0942999e-13
-8.9818206e-10
1.6637806e-13
-4.0886938e-10
-1.0623619e-10
-1.2296262e-08
-4.3780632e-05
-1.896855e-08
-3.5843406e-05
-1.4990337e-08
-2.8057133e-05
-4.4433204e-09
-2.0310344e-05
4.3678711e-09
-1.3773087e-05
8.2844125e-09
-9.0728059e-06
9.0761342e-09
-5.9973955e-06
8.2419346e-09
-4.0343919e-06
6.6861446e-09
-2.8004374e-06
5.0851056e-09
-1.9625955e-06
3.7845791e-09
-1.344278e-06
2.8020215e-09
-9.1127318e-07
2.0645534e-09
-6.2742395e-07
1.4855532e-09
-4.3615391e-07
1.0332535e-09
-3.0099775e-07
7.005143e-10
-2.0520085e-07
4.6549099e-10
-1.3871604e-07
3.0384857e-10
-9.3081571e-08
1.9539582e-10
-6.2027427e-08
1.2424875e-10
-4.1113075e-08
7.8043929e-11
-2.7127363e-08
4.8242446e-11
-1.7794809e-08
2.9132134e-11
-1.1570814e-08
1.7019845e-11
-7.4254251e-09
9.467498e-12
-4.6731071e-09
4.892084e-12
-2.8557963e-09
2.2352754e-12
-1.6660383e-09
8.122623e-13
-8.9676249e-10
1.6650635e-13
-4.0822607e-10
-1.0606968e-10
-1.2303802e-08
-4.3768328e-05
-1.9006642e-08
-3.5836703e-05
-1.5085552e-08
-2.8061054e-05
-4.5347388e-09
-2.0320894e-05
4.3102792e-09
-1.3781932e-05
8.2545984e-09
-9.0767502e-06
9.0617277e-09
-5.9982027e-06
8.2390539e-09
-4.0335692e-06
6.6861778e-09
-2.7988845e-06
5.0827897e-09
-1.9609921e-06
3.782312e-09
-1.3429776e-06
2.7998207e-09
-9.1029067e-07
2.0624306e-09
-6.2668659e-07
1.483856e-09
-4.3557532e-07
1.0318304e-09
-3.0054576e-07
6.9955823e-10
-2.0486857e-07
4.6485435e-10
-1.3848138e-07
3.0343529e-10
-9.292015e-08
1.9515775e-10
-6.1919185e-08
1.2411866e-10
-4.1042033e-08
7.7958371e-11
-2.7081227e-08
4.8187186e-11
-1.7765034e-08
2.9088665e-11
-1.1551729e-08
1.6990018e-11
-7.4133226e-09
9.4436853e-12
-4.6655646e-09
4.873068e-12
-2.8512236e-09
2.2245131e-12
-1.6633881e-09
8.0785585e-13
-8.9534349e-10
1.6645664e-13
-4.0758301e-10
-1.0590323e-10
-1.2311322e-08
-4.3756016e-05
-1.9046424e-08
-3.5829968e-05
-1.5182401e-08
-2.8064918e-05
-4.6296014e-09
-2.0331447e-05
4.2490261e-09
-1.3790811e-05
8.2219727e-09
-9.0807231e-06
9.0444711e-09
-5.9990252e-06
8.2329417e-09
-4.0327576e-06
6.6835032e-09
-2.7973351e-06
5.0784952e-09
-1.9593871e-06
3.7786084e-09
-1.3416777e-06
2.7965285e-09
-9.0930857e-07
2.0594631e-09
-6.2594956e-07
1.4814013e-09
-4.3499725e-07
1.0300644e-09
-3.0009446e-07
6.9827063e-10
-2.0453677e-07
4.6396967e-10
-1.3824711e-07
3.0288185e-10
-9.2759052e-08
1.9482502e-10
-6.1811153e-08
1.2392252e-10
-4.0971121e-08
7.7853647e-11
-2.7035172e-08
4.8131709e-11
-1.7735305e-08
2.9065991e-11
-1.1532669e-08
1.6981639e-11
-7.4012348e-09
9.4451683e-12
-4.6580308e-09
4.8790411e-12
-2.8466556e-09
2.228479e-12
-1.6607402e-09
8.0970969e-13
-8.9392582e-10
1.6633997e-13
-4.0694041e-10
-1.0573689e-10
-1.2319032e-08
-4.3743697e-05
-1.9087574e-08
-3.5823199e-05
-1.528104e-08
-2.8068724e-05
-4.7262272e-09
-2.0342002e-05
4.1846652e-09
-1.3799722e-05
8.1866861e-09
-9.0847251e-06
9.0255789e-09
-5.9998641e-06
8.2245008e-09
-4.0319565e-06
6.6787452e-09
-2.7957894e-06
5.0730587e-09
-1.9577814e-06
3.774064e-09
-1.3403787e-06
2.7926203e-09
-9.0832711e-07
2.0562361e-09
-6.252132e-07
1.4787655e-09
-4.3441976e-07
1.0281968e-09
-2.9964392e-07
6.9695429e-10
-2.0420551e-07
4.6310473e-10
-1.3801329e-07
3.0233529e-10
-9.2598275e-08
1.9448498e-10
-6.1703325e-08
1.2371168e-10
-4.0900344e-08
7.773487e-11
-2.6989211e-08
4.8063524e-11
-1.7705632e-08
2.9026842e-11
-1.1513643e-08
1.6958912e-11
-7.3891667e-09
9.4318574e-12
-4.6505087e-09
4.8697914e-12
-2.8420947e-09
2.2247927e-12
-1.6580963e-09
8.0841952e-13
-8.9251021e-10
1.6611317e-13
-4.0629865e-10
-1.0557077e-10
-1.2326839e-08
-4.373137e-05
-1.912903e-08
-3.5816397e-05
-1.5380913e-08
-2.8072473e-05
-4.8251539e-09
-2.0352558e-05
4.1181173e-09
-1.3808665e-05
8.1498097e-09
-9.0887568e-06
9.0050056e-09
-6.0007193e-06
8.2141516e-09
-4.0311657e-06
6.6723434e-09
-2.7942476e-06
5.0669697e-09
-1.956176e-06
3.7690687e-09
-1.3390808e-06
2.7884037e-09
-9.0734643e-07
2.0527316e-09
-6.2447756e-07
1.4760058e-09
-4.3384302e-07
1.0259819e-09
-2.9919392e-07
6.954283e-10
-2.0387494e-07
4.6207472e-10
-1.3777996e-07
3.0164184e-10
-9.243783e-08
1.9405322e-10
-6.1595751e-08
1.2344756e-10
-4.082973e-08
7.7576661e-11
-2.6943348e-08
4.7969908e-11
-1.7676022e-08
2.897765e-11
-1.1494655e-08
1.693246e-11
-7.3771224e-09
9.421077e-12
-4.6430006e-09
4.8677914e-12
-2.8375424e-09
2.2245898e-12
-1.6554574e-09
8.0850002e-13
-8.9109711e-10
1.6580863e-13
-4.0565808e-10
-1.0540496e-10
-1.233476e-08
-4.3719036e-05
-1.9170601e-08
-3.5809561e-05
-1.5481947e-08
-2.8076161e-05
-4.9250055e-09
-2.0363115e-05
4.0497727e-09
-1.381764e-05
8.1118247e-09
-9.0928189e-06
8.9832946e-09
-6.0015908e-06
8.2023174e-09
-4.0303847e-06
6.6646543e-09
-2.7927099e-06
5.0602417e-09
-1.9545716e-06
3.7636516e-09
-1.3377843e-06
2.783876e-09
-9.0636665e-07
2.048809e-09
-6.2374252e-07
1.4729237e-09
-4.3326713e-07
1.0237729e-09
-2.9874481e-07
6.9385407e-10
-2.0354503e-07
4.6099563e-10
-1.3754714e-07
3.0094985e-10
-9.2277787e-08
1.9362803e-10
-6.1488461e-08
1.2319657e-10
-4.0759299e-08
7.7414348e-11
-2.6897588e-08
4.7869903e-11
-1.7646476e-08
2.8909318e-11
-1.1475707e-08
1.6891422e-11
-7.3651024e-09
9.3927326e-12
-4.6355068e-09
4.8494844e-12
-2.8329981e-09
2.2148148e-12
-1.6528231e-09
8.0458893e-13
-8.8968636e-10
1.6553594e-13
-4.0501865e-10
-1.0523943e-10
-1.2343226e-08
-4.3706692e-05
-1.9212527e-08
-3.5802692e-05
-1.5583119e-08
-2.8079791e-05
-5.0259058e-09
-2.0373672e-05
3.9802415e-09
-1.3826646e-05
8.072895e-09
-9.0969115e-06
8.9614036e-09
-6.0024793e-06
8.1891532e-09
-4.0296124e-06
6.6557046e-09
-2.7911765e-06
5.0527446e-09
-1.9529686e-06
3.7577003e-09
-1.3364893e-06
2.7789264e-09
-9.0538786e-07
2.0446929e-09
-6.2300831e-07
1.4695816e-09
-4.3269201e-07
1.0213691e-09
-2.9829662e-07
6.9211848e-10
-2.0321577e-07
4.5980766e-10
-1.3731485e-07
3.0018035e-10
-9.2118153e-08
1.9313368e-10
-6.1381436e-08
1.2288495e-10
-4.0689044e-08
7.7228119e-11
-2.6851944e-08
4.7757178e-11
-1.7617e-08
2.8847118e-11
-1.1456804e-08
1.685624e-11
-7.3531094e-09
9.3766763e-12
-4.6280299e-09
4.8430448e-12
-2.8284635e-09
2.2123144e-12
-1.6501943e-09
8.0382034e-13
-8.8827852e-10
1.6521711e-13
-4.0438051e-10
-1.0507421e-10
-1.2352413e-08
-4.369434e-05
-1.9254941e-08
-3.579579e-05
-1.5684067e-08
-2.8083361e-05
-5.1272818e-09
-2.0384229e-05
3.9098057e-09
-1.3835683e-05
8.0338276e-09
-9.1010355e-06
8.9392854e-09
-6.0033848e-06
8.1745447e-09
-4.0288477e-06
6.6454676e-09
-2.7896474e-06
5.0446989e-09
-1.9513678e-06
3.7514242e-09
-1.335196e-06
2.7737717e-09
-9.044102e-07
2.0405719e-09
-6.2227513e-07
1.4663531e-09
-4.3211779e-07
1.018831e-09
-2.9784912e-07
6.9037123e-10
-2.0288731e-07
4.5864662e-10
-1.3708315e-07
2.9941119e-10
-9.1958914e-08
1.9264521e-10
-6.1274689e-08
1.2257555e-10
-4.0618973e-08
7.704548e-11
-2.6806428e-08
4.7648603e-11
-1.7587603e-08
2.8784081e-11
-1.1437948e-08
1.6820487e-11
-7.3411464e-09
9.3575147e-12
-4.6205717e-09
4.8329613e-12
-2.8239402e-09
2.2083907e-12
-1.6475717e-09
8.0257098e-13
-8.8687414e-10
1.6484324e-13
-4.0374381e-10
-1.0490937e-10
-1.2362029e-08
-4.3681978e-05
-1.9296964e-08
-3.5788855e-05
-1.5785403e-08
-2.8086873e-05
-5.2291703e-09
-2.0394785e-05
3.8383046e-09
-1.3844751e-05
7.9941272e-09
-9.1051914e-06
8.9171781e-09
-6.0043078e-06
8.1592562e-09
-4.0280898e-06
6.6343895e-09
-2.7881226e-06
5.0363758e-09
-1.9497698e-06
3.744946e-09
-1.3339046e-06
2.7684473e-09
-9.0343369e-07
2.0361076e-09
-6.2154281e-07
1.4628708e-09
-4.3154454e-07
1.0162807e-09
-2.9740255e-07
6.8855207e-10
-2.0255957e-07
4.5738767e-10
-1.36852e-07
2.9857535e-10
-9.1800093e-08
1.9212683e-10
-6.1168253e-08
1.2225773e-10
-4.0549098e-08
7.6852491e-11
-2.676103e-08
4.7532816e-11
-1.7558282e-08
2.8718632e-11
-1.1419138e-08
1.6782194e-11
-7.3292106e-09
9.3377949e-12
-4.6131297e-09
4.8236964e-12
-2.819427e-09
2.2042846e-12
-1.6449548e-09
8.0115816e-13
-8.8547274e-10
1.6450138e-13
-4.0310838e-10
-1.0474487e-10
-1.237212e-08
-4.3669606e-05
-1.9338068e-08
-3.5781889e-05
-1.5886761e-08
-2.8090324e-05
-5.3320603e-09
-2.040534e-05
3.7659743e-09
-1.3853849e-05
7.9538064e-09
-9.1093792e-06
8.8945422e-09
-6.0052486e-06
8.1438964e-09
-4.0273391e-06
6.6230258e-09
-2.7866017e-06
5.0278233e-09
-1.9481746e-06
3.7382665e-09
-1.3326151e-06
2.7629895e-09
-9.0245841e-07
2.0315229e-09
-6.2081137e-07
1.4591931e-09
-4.3097221e-07
1.0136603e-09
-2.9695705e-07
6.8666766e-10
-2.0223258e-07
4.5610431e-10
-1.3662147e-07
2.9775532e-10
-9.164175e-08
1.916176e-10
-6.1062141e-08
1.2195417e-10
-4.0479438e-08
7.6662533e-11
-2.6715757e-08
4.7419417e-11
-1.752904e-08
2.8648116e-11
-1.1400378e-08
1.6743228e-11
-7.3173064e-09
9.3141197e-12
-4.6057062e-09
4.8112394e-12
-2.8149248e-09
2.1984451e-12
-1.6423445e-09
7.9893901e-13
-8.8407466e-10
1.6409219e-13
-4.0247454e-10
-1.0458077e-10
-1.2382661e-08
-4.3657223e-05
-1.9378782e-08
-3.5774893e-05
-1.5988343e-08
-2.8093715e-05
-5.4347006e-09
-2.0415893e-05
3.6926991e-09
-1.3862976e-05
7.9131398e-09
-9.1135996e-06
8.8712192e-09
-6.0062067e-06
8.1284611e-09
-4.0265963e-06
6.6115142e-09
-2.7850848e-06
5.0190141e-09
-1.9465821e-06
3.7313191e-09
-1.3313274e-06
2.7573027e-09
-9.0148439e-07
2.0269155e-09
-6.20081e-07
1.4555502e-09
-4.3040084e-07
1.0108e-09
-2.9651232e-07
6.8465411e-10
-2.0190643e-07
4.5472774e-10
-1.3639157e-07
2.9683468e-10
-9.1483854e-08
1.9100822e-10
-6.0956332e-08
1.2155989e-10
-4.0409987e-08
7.6416861e-11
-2.6670625e-08
4.726475e-11
-1.7499886e-08
2.8556064e-11
-1.1381675e-08
1.668779e-11
-7.3054377e-09
9.2838958e-12
-4.5983048e-09
4.7944867e-12
-2.8104354e-09
2.1904185e-12
-1.6397416e-09
7.958713e-13
-8.8268052e-10
1.6362418e-13
-4.0184258e-10
-1.0441715e-10
-1.2393055e-08
-4.364483e-05
-1.94198e-08
-3.5767866e-05
-1.6089289e-08
-2.8097045e-05
-5.5383797e-09
-2.0426444e-05
3.6186912e-09
-1.3872133e-05
7.8717154e-09
-9.1178526e-06
8.84804e-09
-6.007183e-06
8.1128291e-09
-4.0258611e-06
6.5997636e-09
-2.7835717e-06
5.0101623e-09
-1.9449925e-06
3.724412e-09
-1.3300416e-06
2.7516869e-09
-9.0051166e-07
2.0223885e-09
-6.1935172e-07
1.4520366e-09
-4.2983048e-07
1.0082081e-09
-2.9606851e-07
6.8282781e-10
-2.0158105e-07
4.5348672e-10
-1.3616224e-07
2.9600985e-10
-9.1326377e-08
1.9049097e-10
-6.0850829e-08
1.2123587e-10
-4.0340733e-08
7.6227399e-11
-2.6625628e-08
4.7153848e-11
-1.7470814e-08
2.8493337e-11
-1.1363022e-08
1.6653908e-11
-7.2936e-09
9.2673292e-12
-4.5909228e-09
4.7875905e-12
-2.8059572e-09
2.1880966e-12
-1.6371449e-09
7.9522805e-13
-8.8128972e-10
1.6325702e-13
-4.0121208e-10
-1.0425389e-10
-1.2402461e-08
-4.3632428e-05
-1.9461441e-08
-3.5760807e-05
-1.6190786e-08
-2.8100316e-05
-5.6423002e-09
-2.0436993e-05
3.5436191e-09
-1.3881319e-05
7.8300293e-09
-9.1221391e-06
8.8244899e-09
-6.0081775e-06
8.0967569e-09
-4.0251334e-06
6.5877008e-09
-2.7820627e-06
5.0013557e-09
-1.9434061e-06
3.7176638e-09
-1.328758e-06
2.7462218e-09
-8.9954021e-07
2.0177874e-09
-6.186233e-07
1.4483698e-09
-4.2926106e-07
1.005578e-09
-2.9562573e-07
6.8091479e-10
-2.0125638e-07
4.5215673e-10
-1.359335e-07
2.9513596e-10
-9.1169351e-08
1.8994395e-10
-6.0745647e-08
1.2089713e-10
-4.0271682e-08
7.6017942e-11
-2.6580754e-08
4.7026061e-11
-1.7441821e-08
2.8417731e-11
-1.1344417e-08
1.6607908e-11
-7.2817911e-09
9.2416795e-12
-4.5835583e-09
4.7732399e-12
-2.8014898e-09
2.181189e-12
-1.6345542e-09
7.9272845e-13
-8.7990217e-10
1.6290829e-13
-4.0058291e-10
-1.0409099e-10
-1.2411466e-08
-4.3620016e-05
-1.9503415e-08
-3.5753715e-05
-1.6292946e-08
-2.8103526e-05
-5.7475407e-09
-2.0447538e-05
3.4677199e-09
-1.3890534e-05
7.7877907e-09
-9.1264591e-06
8.8006822e-09
-6.0091904e-06
8.0807172e-09
-4.0244134e-06
6.5757103e-09
-2.7805577e-06
4.9926515e-09
-1.9418231e-06
3.7110202e-09
-1.3274763e-06
2.7408406e-09
-8.9857003e-07
2.0133536e-09
-6.1789583e-07
1.4448592e-09
-4.2869257e-07
1.0028807e-09
-2.9518378e-07
6.7902946e-10
-2.0093253e-07
4.5087986e-10
-1.3570538e-07
2.9430913e-10
-9.1012789e-08
1.8941879e-10
-6.0640782e-08
1.2057912e-10
-4.0202849e-08
7.5817664e-11
-2.6536012e-08
4.6907921e-11
-1.7412915e-08
2.834642e-11
-1.1325867e-08
1.6570377e-11
-7.2700174e-09
9.2209132e-12
-4.5762154e-09
4.7651593e-12
-2.7970358e-09
2.1781336e-12
-1.6319713e-09
7.9180746e-13
-8.7851879e-10
1.6240943e-13
-3.999556e-10
-1.0392858e-10
-1.2421012e-08
-4.3607595e-05
-1.9545665e-08
-3.574659e-05
-1.6395434e-08
-2.8106677e-05
-5.8530127e-09
-2.0458081e-05
3.3907142e-09
-1.3899778e-05
7.7449524e-09
-9.1308134e-06
8.776632e-09
-6.010222e-06
8.0648006e-09
-4.0237016e-06
6.5638166e-09
-2.7790567e-06
4.983842e-09
-1.9402431e-06
3.7041674e-09
-1.3261967e-06
2.7352667e-09
-8.9760113e-07
2.0088895e-09
-6.1716947e-07
1.4413606e-09
-4.2812504e-07
1.0002383e-09
-2.9474267e-07
6.7715725e-10
-2.0060945e-07
4.4959543e-10
-1.3547783e-07
2.93438e-10
-9.0856632e-08
1.8883893e-10
-6.0536199e-08
1.2020152e-10
-4.013421e-08
7.5579064e-11
-2.64914e-08
4.6754849e-11
-1.7384089e-08
2.8252327e-11
-1.1307371e-08
1.6511682e-11
-7.2582773e-09
9.1861228e-12
-4.5688925e-09
4.7435204e-12
-2.7925938e-09
2.1672165e-12
-1.6293956e-09
7.8750711e-13
-8.7713907e-10
1.6196057e-13
-3.9933004e-10
-1.0376662e-10
-1.2430911e-08
-4.3595164e-05
-1.9588315e-08
-3.5739433e-05
-1.6497546e-08
-2.8109768e-05
-5.959013e-09
-2.0468619e-05
3.3132563e-09
-1.390905e-05
7.7020601e-09
-9.1352022e-06
8.7522363e-09
-6.0112722e-06
8.0487613e-09
-4.0229981e-06
6.5519034e-09
-2.7775599e-06
4.9748901e-09
-1.9386661e-06
3.6972093e-09
-1.324919e-06
2.7296743e-09
-8.9663359e-07
2.0043386e-09
-6.1644415e-07
1.4378176e-09
-4.2755852e-07
9.9774343e-10
-2.9430262e-07
6.7537938e-10
-2.0028709e-07
4.4838845e-10
-1.3525086e-07
2.926543e-10
-9.0700899e-08
1.883597e-10
-6.0431919e-08
1.1990554e-10
-4.0065758e-08
7.5409374e-11
-2.6446915e-08
4.6657158e-11
-1.735534e-08
2.8199254e-11
-1.128892e-08
1.6484941e-11
-7.2465652e-09
9.1749495e-12
-4.5615871e-09
4.7409735e-12
-2.7881615e-09
2.1672168e-12
-1.6268253e-09
7.8770023e-13
-8.7576221e-10
1.6162773e-13
-3.9870586e-10
-1.0360499e-10
-1.2440967e-08
-4.3582723e-05
-1.9631194e-08
-3.5732243e-05
-1.6599275e-08
-2.8112799e-05
-6.0654523e-09
-2.0479153e-05
3.2349315e-09
-1.3918351e-05
7.6586744e-09
-9.1396259e-06
8.7282215e-09
-6.0123418e-06
8.0326622e-09
-4.0223026e-06
6.5399666e-09
-2.7760672e-06
4.9658657e-09
-1.937092e-06
3.6903048e-09
-1.3236435e-06
2.7241415e-09
-8.9566742e-07
1.9996919e-09
-6.1571971e-07
1.4340955e-09
-4.2699292e-07
9.9489779e-10
-2.9386343e-07
6.7334949e-10
-1.9996554e-07
4.4698057e-10
-1.350245e-07
2.9172675e-10
-9.0545641e-08
1.8776922e-10
-6.032797e-08
1.1953404e-10
-3.999752e-08
7.5175145e-11
-2.6402561e-08
4.6511159e-11
-1.7326674e-08
2.8109325e-11
-1.1270521e-08
1.6428654e-11
-7.234885e-09
9.1420057e-12
-4.5543016e-09
4.7208204e-12
-2.7837411e-09
2.1570296e-12
-1.6242616e-09
7.8382576e-13
-8.7438896e-10
1.6123415e-13
-3.9808323e-10
-1.0344375e-10
-1.2451022e-08
-4.3570272e-05
-1.9673516e-08
-3.572502e-05
-1.6701431e-08
-2.8115772e-05
-6.1721294e-09
-2.0489682e-05
3.1558754e-09
-1.3927679e-05
7.6150569e-09
-9.1440851e-06
8.7038996e-09
-6.0134306e-06
8.0163909e-09
-4.021615e-06
6.5279393e-09
-2.7745787e-06
4.9567452e-09
-1.9355208e-06
3.6834065e-09
-1.3223701e-06
2.7185851e-09
-8.947026e-07
1.9951824e-09
-6.1499632e-07
1.430556e-09
-4.264283e-07
9.9218791e-10
-2.9342508e-07
6.7144422e-10
-1.996448e-07
4.4570175e-10
-1.3479879e-07
2.9089124e-10
-9.0390841e-08
1.8723865e-10
-6.022434e-08
1.1921588e-10
-3.9929506e-08
7.4980682e-11
-2.6358343e-08
4.6400169e-11
-1.72981e-08
2.8046881e-11
-1.1252179e-08
1.6398073e-11
-7.2232403e-09
9.1278625e-12
-4.5470383e-09
4.7184784e-12
-2.7793344e-09
2.1573973e-12
-1.6217058e-09
7.8440777e-13
-8.7301996e-10
1.6075225e-13
-3.9746241e-10
-1.03283e-10
-1.2461174e-08
-4.3557811e-05
-1.9715074e-08
-3.5717766e-05
-1.6803454e-08
-2.8118683e-05
-6.27973e-09
-2.0500206e-05
3.0761736e-09
-1.3937035e-05
7.5711982e-09
-9.1485801e-06
8.6793377e-09
-6.0145388e-06
8.0002531e-09
-4.020936e-06
6.5159859e-09
-2.7730945e-06
4.9476278e-09
-1.9339524e-06
3.6764493e-09
-1.321099e-06
2.7129397e-09
-8.9373909e-07
1.9906502e-09
-6.1427405e-07
1.4270252e-09
-4.2586467e-07
9.8967593e-10
-2.9298775e-07
6.6963893e-10
-1.9932477e-07
4.4444945e-10
-1.3457361e-07
2.900416e-10
-9.0236436e-08
1.8667659e-10
-6.0120989e-08
1.1885066e-10
-3.9861681e-08
7.4748726e-11
-2.631425e-08
4.6250595e-11
-1.7269602e-08
2.7953066e-11
-1.1233887e-08
1.6338327e-11
-7.211627e-09
9.0907585e-12
-4.5397933e-09
4.6942195e-12
-2.7749391e-09
2.1448914e-12
-1.6191566e-09
7.7950889e-13
-8.7165443e-10
1.6034169e-13
-3.9684314e-10
-1.0312266e-10
-1.2471562e-08
-4.3545339e-05
-1.9756266e-08
-3.5710481e-05
-1.690517e-08
-2.8121534e-05
-6.3868001e-09
-2.0510724e-05
2.9957089e-09
-1.3946417e-05
7.5268618e-09
-9.1531113e-06
8.6546879e-09
-6.0156666e-06
7.9842265e-09
-4.0202655e-06
6.5041313e-09
-2.7716144e-06
4.9386986e-09
-1.932387e-06
3.669639e-09
-1.3198299e-06
2.7075239e-09
-8.9277698e-07
1.9862027e-09
-6.1355274e-07
1.4234856e-09
-4.2530196e-07
9.8704951e-10
-2.9255133e-07
6.6777835e-10
-1.990055e-07
4.4318143e-10
-1.3434903e-07
2.8922544e-10
-9.0082484e-08
1.8617765e-10
-6.0017955e-08
1.1854083e-10
-3.9794049e-08
7.4569444e-11
-2.6270289e-08
4.6146596e-11
-1.7241184e-08
2.7897086e-11
-1.1215645e-08
1.6310866e-11
-7.2000442e-09
9.0794534e-12
-4.5325666e-09
4.6925177e-12
-2.7705544e-09
2.1454875e-12
-1.6166136e-09
7.7993837e-13
-8.7029208e-10
1.5994618e-13
-3.9622541e-10
-1.0296271e-10
-1.2482222e-08
-4.3532857e-05
-1.9797433e-08
-3.5703166e-05
-1.7005589e-08
-2.8124326e-05
-6.4944819e-09
-2.0521236e-05
2.9149762e-09
-1.3955827e-05
7.4827186e-09
-9.157679e-06
8.6298971e-09
-6.0168138e-06
7.9679182e-09
-4.0196035e-06
6.4920912e-09
-2.7701386e-06
4.9298577e-09
-1.9308247e-06
3.6628979e-09
-1.318563e-06
2.7021617e-09
-8.9181624e-07
1.9817136e-09
-6.128323e-07
1.4199105e-09
-4.2474015e-07
9.8420258e-10
-2.9211563e-07
6.6573794e-10
-1.9868704e-07
4.4176939e-10
-1.3412507e-07
2.8828404e-10
-8.9928999e-08
1.8557012e-10
-5.9915249e-08
1.1815528e-10
-3.9726633e-08
7.4324829e-11
-2.6226464e-08
4.5993014e-11
-1.7212852e-08
2.7801303e-11
-1.1197456e-08
1.6250848e-11
-7.1884951e-09
9.044073e-12
-4.5253613e-09
4.6702534e-12
-2.7661818e-09
2.1341855e-12
-1.6140776e-09
7.7550798e-13
-8.689334e-10
1.5951792e-13
-3.9560942e-10
-1.028032e-10
-1.2493093e-08
-4.3520364e-05
-1.9837735e-08
-3.5695822e-05
-1.7105873e-08
-2.8127058e-05
-6.6021254e-09
-2.0531739e-05
2.8331067e-09
-1.3965262e-05
7.4379169e-09
-9.1622838e-06
8.6053373e-09
-6.0179812e-06
7.9515117e-09
-4.0189497e-06
6.479949e-09
-2.768667e-06
4.9210615e-09
-1.9292659e-06
3.6562567e-09
-1.3172982e-06
2.696827e-09
-8.9085682e-07
1.9774007e-09
-6.1211289e-07
1.4165519e-09
-4.2417932e-07
9.818456e-10
-2.9168095e-07
6.6407283e-10
-1.9836928e-07
4.4064651e-10
-1.3390167e-07
2.8754695e-10
-8.9775916e-08
1.85105e-10
-5.9812832e-08
1.1788356e-10
-3.9659426e-08
7.4164691e-11
-2.6182764e-08
4.5907486e-11
-1.7184605e-08
2.7758205e-11
-1.117932e-08
1.6234454e-11
-7.1769787e-09
9.040802e-12
-4.5181766e-09
4.6760126e-12
-2.7618218e-09
2.1390724e-12
-1.6115485e-09
7.7791058e-13
-8.6757854e-10
1.5909619e-13
-3.9499508e-10
-1.026441e-10
-1.2504077e-08
-4.350786e-05
-1.9876894e-08
-3.5688449e-05
-1.7206584e-08
-2.8129728e-05
-6.7106936e-09
-2.0542235e-05
2.7506832e-09
-1.3974723e-05
7.3929808e-09
-9.1669261e-06
8.5804015e-09
-6.0191686e-06
7.9351448e-09
-4.0183044e-06
6.4678791e-09
-2.7671998e-06
4.9122584e-09
-1.9277102e-06
3.6496975e-09
-1.3160356e-06
2.6915705e-09
-8.8989869e-07
1.9731849e-09
-6.1139452e-07
1.4132185e-09
-4.2361936e-07
9.7942235e-10
-2.9124717e-07
6.6233027e-10
-1.980522e-07
4.3943358e-10
-1.336788e-07
2.8672752e-10
-8.9623218e-08
1.8455983e-10
-5.971068e-08
1.1752495e-10
-3.9592397e-08
7.3931482e-11
-2.6139182e-08
4.575462e-11
-1.7156433e-08
2.765827e-11
-1.1161231e-08
1.6167717e-11
-7.165492e-09
8.9972846e-12
-4.51101e-09
4.6461221e-12
-2.7574732e-09
2.1231393e-12
-1.609026e-09
7.7168317e-13
-8.6622723e-10
1.5870745e-13
-3.9438221e-10
-1.0248539e-10
-1.2515169e-08
-4.3495345e-05
-1.9915795e-08
-3.5681048e-05
-1.730731e-08
-2.8132337e-05