/*--------------------------------*- C++ -*----------------------------------*\
| =========                 |                                                 |
| \\      /  F ield         | OpenFOAM: The Open Source CFD Toolbox           |
|  \\    /   O peration     | Version:  v2012                                 |
|   \\  /    A nd           | Website:  www.openfoam.com                      |
|    \\/     M anipulation  |                                                 |
\*---------------------------------------------------------------------------*/
FoamFile
{
    version     2.0;
    format      ascii;
    class       volScalarField;
    location    "900";
    object      rho;
}
// * * * * * * * * * * * * * * * * * * * * * * * * * * * * * * * * * * * * * //

dimensions      [1 -3 0 0 0 0 0];


internalField   nonuniform List<scalar> 
24000
(
22.063123
21.531872
19.819597
16.61558
12.939569
9.7689155
7.4178633
5.7723847
4.6938249
3.8963515
3.2062513
2.6746543
2.3193866
2.0730942
1.8850392
1.7382457
1.6259253
1.5400504
1.4740675
1.4232648
1.3839811
1.3533174
1.3291247
1.3098504
1.2943694
1.2818533
1.2716812
1.2633799
1.2565827
1.2510026
22.065613
21.537061
19.83301
16.63492
12.956705
9.7805978
7.4247979
5.7756847
4.6947611
3.8960643
3.2054371
2.6736594
2.3182981
2.0719338
1.8838596
1.7371064
1.6248621
1.5390734
1.4731741
1.4224462
1.3832229
1.3526071
1.3284518
1.3092066
1.2937483
1.2812501
1.2710921
1.2628019
1.2560133
1.2504404
22.068159
21.542365
19.846623
16.654338
12.974042
9.7920676
7.4313059
5.7784699
4.6952163
3.8954117
3.2043452
2.6724369
2.3170431
2.0706472
1.8825753
1.7358883
1.623744
1.5380533
1.4722458
1.4215977
1.3824392
1.351874
1.3277578
1.3085427
1.2931079
1.280628
1.2704844
1.2622054
1.2554259
1.2498601
22.070709
21.547682
19.860243
16.673732
12.991379
9.8034013
7.4376368
5.781151
4.6956128
3.894697
3.2032196
2.6712288
2.3158423
2.0694293
1.8813837
1.7347986
1.6227719
1.5371878
1.4714698
1.4208926
1.3817883
1.3512634
1.3271774
1.3079859
1.2925692
1.2801038
1.2699718
1.2617019
1.2549302
1.2493703
22.073263
21.553001
19.873845
16.693105
13.008747
9.8146748
7.4438812
5.7837594
4.6959419
3.8939109
3.2020312
2.6699712
2.3146091
2.0681862
1.8801674
1.7336831
1.6217699
1.5362885
1.4706567
1.4201507
1.3811018
1.3506192
1.3265659
1.3073993
1.2920023
1.2795522
1.2694325
1.2611725
1.2544087
1.248855
22.075817
21.558311
19.887416
16.712462
13.026155
9.8259286
7.4500868
5.7863383
4.6962361
3.8930819
3.2008056
2.6686861
2.3133574
2.0669309
1.8789456
1.7325626
1.6207661
1.535388
1.4698444
1.4194104
1.3804163
1.3499759
1.3259547
1.3068131
1.2914356
1.2790009
1.2688933
1.2606433
1.253887
1.2483398
22.078371
21.563608
19.90095
16.731819
13.043605
9.837187
7.4562799
5.7889077
4.6965084
3.8922213
3.1995523
2.6673794
2.312089
2.0656645
1.8777132
1.7314354
1.6197555
1.5344816
1.4690273
1.418665
1.3797266
1.3493285
1.3253397
1.3062231
1.2908653
1.2784461
1.2683509
1.2601107
1.2533622
1.2478214
22.080925
21.568889
19.914445
16.751172
13.061102
9.8484637
7.4624782
5.7914806
4.6967685
3.8913383
3.1982804
2.6660584
2.3108116
2.0643909
1.8764751
1.7303042
1.6187418
1.5335739
1.468208
1.4179179
1.3790358
1.34868
1.3247235
1.305632
1.2902936
1.2778901
1.2678072
1.2595767
1.2528363
1.2473019
22.083479
21.574153
19.927894
16.770538
13.078644
9.8597671
7.4686869
5.7940634
4.6970225
3.8904388
3.1969962
2.6647281
2.3095282
2.0631127
1.8752369
1.7291708
1.6177276
1.532665
1.467388
1.4171704
1.3783442
1.348031
1.324107
1.3050406
1.2897217
1.2773335
1.267263
1.2590423
1.25231
1.2467817
22.086032
21.5794
19.941301
16.789906
13.096235
9.8711036
7.4749141
5.7966606
4.6972745
3.8895262
3.1957041
2.663392
2.3082406
2.0618336
1.8739965
1.7280382
1.6167134
1.5317561
1.4665691
1.4164239
1.3776529
1.3473822
1.3234908
1.3044493
1.2891502
1.2767772
1.2667189
1.2585082
1.2517836
1.2462617
22.088584
21.584631
19.954664
16.809293
13.113873
9.8824764
7.4811646
5.7992754
4.6975273
3.8886029
3.1944068
2.6620531
2.306951
2.0605539
1.8727558
1.7269065
1.6157002
1.530849
1.4657512
1.4156781
1.3769629
1.3467344
1.3228753
1.3038588
1.2885792
1.2762218
1.2661756
1.2579748
1.2512578
1.2457424
22.091136
21.589846
19.967987
16.82869
13.131561
9.8938896
7.4874377
5.8019106
4.6977829
3.8876706
3.1931061
2.6607127
2.3056623
2.0592745
1.8715189
1.7257757
1.6146889
1.5299436
1.4649344
1.4149334
1.3762743
1.3460879
1.3222608
1.3032692
1.2880092
1.2756672
1.2656333
1.2574423
1.2507332
1.2452242
22.093687
21.595042
19.981266
16.848103
13.149296
9.9053439
7.4937388
5.8045679
4.6980426
3.886731
3.1918041
2.6593722
2.3043741
2.0579971
1.8702828
1.7246479
1.6136798
1.5290397
1.4641194
1.4141906
1.3755868
1.3454427
1.3216478
1.3026811
1.2874402
1.2751137
1.2650921
1.2569106
1.2502096
1.2447069
22.096237
21.600219
19.994502
16.867532
13.16708
9.916843
7.5000671
5.8072472
4.6983077
3.8857855
3.1905022
2.6580322
2.3030862
2.0567215
1.8690479
1.7235227
1.6126729
1.5281381
1.4633073
1.41345
1.374901
1.3447989
1.3210362
1.3020943
1.2868728
1.2745613
1.2645519
1.25638
1.2496871
1.2441904
22.098787
21.605377
20.007697
16.886974
13.184913
9.9283864
7.5064229
5.8099479
4.6985788
3.8848354
3.1892016
2.656694
2.3018006
2.0554482
1.8678183
1.7223995
1.6116687
1.5272396
1.4624969
1.4127111
1.3742172
1.3441569
1.3204261
1.3015089
1.2863067
1.2740105
1.264013
1.2558511
1.2491656
1.2436752
22.101338
21.610515
20.020853
16.906435
13.202794
9.9399773
7.5128102
5.8126697
4.6988566
3.8838832
3.1879025
2.6553576
2.3005178
2.0541773
1.8665905
1.7212798
1.6106674
1.5263431
1.4616883
1.4119739
1.3735355
1.3435167
1.3198176
1.3009249
1.2857421
1.2734611
1.2634757
1.2553235
1.2486455
1.2431616
22.103888
21.615635
20.033965
16.925907
13.220725
9.9516147
7.5192255
5.8154127
4.6991415
3.8829301
3.1866055
2.6540233
2.2992367
2.0529094
1.8653643
1.7201636
1.609669
1.525449
1.4608827
1.4112393
1.3728554
1.3428783
1.3192108
1.3003427
1.2851789
1.2729132
1.2629399
1.2547972
1.2481271
1.2426495
22.10644
21.620737
20.047036
16.9454
13.238703
9.9633016
7.5256713
5.8181766
4.6994338
3.881977
3.1853112
2.6526912
2.2979572
2.0516444
1.8641436
1.7190495
1.608673
1.5245581
1.4600797
1.4105071
1.3721772
1.3422415
1.3186059
1.2997621
1.2846173
1.2723665
1.2624054
1.2542721
1.24761
1.2421385
22.108992
21.625821
20.060065
16.964903
13.256732
9.9750369
7.5321491
5.8209597
4.6997337
3.8810246
3.1840203
2.651362
2.2966813
2.0503816
1.8629252
1.7179389
1.6076805
1.5236698
1.4592786
1.4097766
1.3715012
1.3416066
1.3180025
1.2991831
1.2840574
1.2718214
1.2618721
1.2537485
1.2470942
1.2416287
22.111545
21.630888
20.073056
16.984426
13.274806
9.9868231
7.5386559
5.8237596
4.7000413
3.8800746
3.1827331
2.6500355
2.2954082
2.0491225
1.8617086
1.7168321
1.6066908
1.5227837
1.4584797
1.4090481
1.3708274
1.3409736
1.3174008
1.2986056
1.283499
1.2712781
1.2613405
1.2532266
1.2465796
1.2411203
22.114097
21.635939
20.086002
17.003961
13.292932
9.9986594
7.545196
5.8265749
4.7003566
3.8791288
3.1814496
2.6487118
2.294137
2.0478663
1.8604973
1.7157275
1.6057037
1.5219005
1.4576841
1.4083223
1.3701552
1.3403427
1.3168009
1.2980298
1.2829421
1.2707363
1.2608106
1.2527062
1.2460666
1.2406137
22.116649
21.640976
20.098908
17.023511
13.311104
10.010548
7.551767
5.8294056
4.7006794
3.878188
3.1801697
2.6473909
2.2928683
2.0466125
1.8592888
1.7146264
1.6047199
1.5210206
1.4568906
1.4075989
1.3694849
1.3397133
1.3162028
1.2974558
1.2823867
1.2701958
1.2602821
1.252187
1.2455552
1.2401084
22.119201
21.645999
20.111771
17.043076
13.329326
10.022488
7.5583696
5.8322525
4.70101
3.8772521
3.1788937
2.6460731
2.2916034
2.0453623
1.8580821
1.7135292
1.6037392
1.5201427
1.4560991
1.4068771
1.3688169
1.3390858
1.3156064
1.2968834
1.2818331
1.2696568
1.259755
1.2516692
1.2450453
1.2396044
22.121755
21.651008
20.124595
17.062653
13.347595
10.034482
7.5650068
5.8351147
4.7013484
3.8763223
3.177622
2.6447584
2.2903409
2.0441151
1.8568801
1.7124343
1.602761
1.5192673
1.4553102
1.4061575
1.3681511
1.3384601
1.3150117
1.2963126
1.281281
1.2691194
1.2592291
1.2511529
1.2445366
1.2391016
22.124312
21.656
20.137376
17.082247
13.365911
10.046529
7.571675
5.8379921
4.7016948
3.875399
3.1763545
2.6434467
2.2890805
2.0428706
1.8556816
1.7113426
1.6017859
1.5183954
1.4545244
1.4054405
1.367487
1.3378366
1.3144187
1.2957433
1.2807306
1.2685837
1.258705
1.2506383
1.2440291
1.2386003
22.126869
21.660975
20.150116
17.10185
13.384277
10.05863
7.578378
5.8408854
4.7020491
3.8744817
3.1750911
2.6421378
2.2878232
2.041629
1.8544847
1.7102547
1.6008139
1.5175259
1.4537404
1.4047257
1.3668246
1.3372146
1.3138274
1.2951758
1.2801814
1.2680494
1.2581825
1.250125
1.2435232
1.2381006
22.129426
21.665932
20.162811
17.12147
13.402688
10.070787
7.5851146
5.8437955
4.7024114
3.87357
3.1738316
2.6408321
2.2865691
2.0403906
1.8532918
1.7091693
1.5998446
1.5166584
1.4529585
1.4040126
1.3661645
1.3365944
1.313238
1.29461
1.2796339
1.2675165
1.2576614
1.2496131
1.2430189
1.2376024
22.131984
21.670873
20.175467
17.141098
13.42115
10.082998
7.5918842
5.8467223
4.7027819
3.8726637
3.1725762
2.6395295
2.2853172
2.0391551
1.8521029
1.7080868
1.5988778
1.5157939
1.4521793
1.4033015
1.3655065
1.3359759
1.31265
1.2940456
1.2790881
1.266985
1.2571415
1.2491023
1.242516
1.2371053
22.134541
21.675797
20.188082
17.160741
13.439655
10.095267
7.5986904
5.8496649
4.7031605
3.8717627
3.1713252
2.63823
2.2840674
2.037922
1.8509156
1.707008
1.5979144
1.5149325
1.4514029
1.4025931
1.3648501
1.3353595
1.3120638
1.2934829
1.2785438
1.2664551
1.2566229
1.2485932
1.2420142
1.2366094
22.137099
21.680705
20.200654
17.180395
13.458212
10.107591
7.6055294
5.8526237
4.7035472
3.870867
3.1700787
2.6369333
2.2828211
2.0366921
1.8497314
1.7059319
1.5969537
1.514073
1.4506281
1.4018868
1.3641955
1.3347447
1.3114791
1.2929215
1.2780009
1.2659268
1.256106
1.2480856
1.2415136
1.2361148
22.139656
21.685597
20.213182
17.200058
13.476812
10.119975
7.6124045
5.8555995
4.7039421
3.8699765
3.1688366
2.6356399
2.2815776
2.0354653
1.848552
1.7048584
1.5959952
1.5132157
1.4498554
1.401182
1.3635429
1.3341315
1.3108963
1.292362
1.2774593
1.2653999
1.2555907
1.2475794
1.2410146
1.235622
22.142214
21.690474
20.225667
17.219734
13.49546
10.132414
7.619315
5.858593
4.7043453
3.8690918
3.1675985
2.6343496
2.2803361
2.0342406
1.847374
1.7037882
1.59504
1.5123618
1.4490857
1.4004792
1.3628924
1.3335201
1.3103149
1.2918039
1.2769194
1.2648742
1.2550766
1.2470743
1.2405172
1.2351305
22.144772
21.695336
20.238114
17.239418
13.514154
10.144915
7.62626
5.861603
4.7047568
3.8682135
3.1663648
2.6330623
2.2790969
2.033019
1.8461982
1.7027212
1.5940876
1.5115102
1.4483183
1.3997791
1.3622437
1.3329105
1.3097353
1.2912475
1.2763811
1.2643499
1.2545637
1.2465705
1.240021
1.23464
22.14733
21.700187
20.250517
17.259113
13.532893
10.157474
7.6332431
5.8646294
4.7051766
3.8673415
3.1651356
2.631778
2.2778611
2.0318003
1.8450279
1.7016563
1.5931373
1.5106604
1.4475524
1.3990808
1.3615964
1.3323026
1.309157
1.2906922
1.2758441
1.2638272
1.2540521
1.2460681
1.2395259
1.2341506
22.149888
21.705024
20.262876
17.278815
13.55168
10.170095
7.6402603
5.8676733
4.7056048
3.8664754
3.1639112
2.6304967
2.2766276
2.030584
1.8438589
1.7005945
1.5921899
1.5098132
1.4467886
1.3983841
1.3609511
1.3316962
1.3085805
1.2901386
1.2753085
1.263306
1.2535422
1.2455673
1.2390319
1.2336626
22.152446
21.70985
20.27519
17.298527
13.570509
10.182775
7.6473156
5.8707353
4.7060415
3.8656151
3.1626912
2.6292186
2.2753958
2.0293699
1.8426914
1.6995362
1.5912453
1.5089691
1.4460279
1.3976893
1.3603079
1.3310915
1.3080055
1.2895866
1.2747741
1.2627861
1.2530336
1.2450678
1.2385395
1.2331762
22.155005
21.71466
20.287466
17.318246
13.589387
10.195519
7.6544072
5.8738146
4.7064868
3.8647604
3.1614755
2.6279435
2.2741667
2.0281589
1.8415294
1.6984797
1.5903032
1.5081269
1.445269
1.3969969
1.3596664
1.3304885
1.3074321
1.2890361
1.2742415
1.2622673
1.2525263
1.2445693
1.2380486
1.2326911
22.157564
21.719454
20.299698
17.337973
13.608306
10.208324
7.6615351
5.8769108
4.7069405
3.8639113
3.1602643
2.6266713
2.2729406
2.0269505
1.8403691
1.6974261
1.5893631
1.5072864
1.4445117
1.3963064
1.3590262
1.3298872
1.3068601
1.2884869
1.2737102
1.2617498
1.25202
1.2440719
1.2375588
1.232207
22.160123
21.724233
20.311888
17.357709
13.627272
10.221194
7.6687023
5.8800247
4.7074027
3.8630678
3.1590579
2.6254021
2.2717165
2.0257439
1.83921
1.6963759
1.5884263
1.5064491
1.4437566
1.3956175
1.3583879
1.3292874
1.3062895
1.287939
1.2731803
1.261234
1.2515151
1.2435761
1.23707
1.2317239
22.162682
21.728996
20.324032
17.377449
13.64628
10.234127
7.675905
5.8831572
4.7078735
3.8622298
3.1578565
2.6241362
2.2704941
2.0245401
1.8380556
1.6953277
1.5874919
1.5056142
1.4430044
1.3949303
1.3577515
1.3286892
1.3057207
1.2873927
1.2726516
1.2607196
1.2510117
1.2430817
1.2365824
1.231242
22.165241
21.733743
20.336133
17.397197
13.665332
10.247127
7.6831476
5.8863078
4.7083529
3.861398
3.1566598
2.6228732
2.2692746
2.0233391
1.8369037
1.6942821
1.5865594
1.5047809
1.4422537
1.3942454
1.357117
1.3280925
1.3051533
1.2868479
1.2721242
1.2602064
1.2505098
1.2425886
1.2360962
1.2307618
22.167804
21.738476
20.348195
17.416949
13.684429
10.260192
7.6904268
5.8894757
4.708841
3.8605727
3.1554677
2.6216132
2.2680575
2.0221398
1.8357528
1.6932395
1.5856296
1.5039496
1.4415046
1.3935625
1.3564837
1.3274975
1.3045873
1.2863044
1.2715984
1.2596941
1.2500088
1.2420963
1.2356114
1.2302828
22.170368
21.743194
20.360214
17.436707
13.703564
10.273324
7.6977448
5.8926616
4.7093379
3.8597538
3.1542802
2.620356
2.2668422
2.0209428
1.8346054
1.6921993
1.5847026
1.5031216
1.4407578
1.3928809
1.3558522
1.3269041
1.3040226
1.2857623
1.2710739
1.2591832
1.2495089
1.2416052
1.2351278
1.2298047
22.172931
21.747898
20.372188
17.456468
13.722746
10.286525
7.7051022
5.8958667
4.7098436
3.8589411
3.1530977
2.619102
2.2656284
2.0197484
1.8334614
1.6911613
1.5837775
1.5022953
1.4400137
1.392201
1.3552224
1.326312
1.3034595
1.2852213
1.2705507
1.2586739
1.2490103
1.2411156
1.2346451
1.2293276
22.175495
21.752589
20.384116
17.476233
13.741965
10.299793
7.7124967
5.8990905
4.7103583
3.8581345
3.1519201
2.6178509
2.2644175
2.0185563
1.8323184
1.6901261
1.5828546
1.5014707
1.439271
1.3915234
1.3545946
1.3257215
1.302898
1.2846821
1.2700286
1.258166
1.2485133
1.2406274
1.2341635
1.2288517
22.178059
21.757268
20.396005
17.496003
13.761228
10.313133
7.7199325
5.9023322
4.7108821
3.8573337
3.1507476
2.6166027
2.2632086
2.0173655
1.8311775
1.6890936
1.5819346
1.5006485
1.4385298
1.3908477
1.3539679
1.3251324
1.3023377
1.284144
1.2695077
1.257659
1.2480174
1.2401403
1.2336832
1.2283773
22.180623
21.761936
20.407852
17.515774
13.78053
10.326542
7.7274052
5.9055924
4.7114152
3.8565389
3.1495798
2.6153572
2.2620011
2.0161773
1.8300412
1.6880629
1.5810168
1.4998291
1.437791
1.3901733
1.3533428
1.3245452
1.3017788
1.2836074
1.2689885
1.2571531
1.2475227
1.2396541
1.2332044
1.2279042
22.183187
21.766593
20.419655
17.53555
13.799872
10.340024
7.7349194
5.9088724
4.7119576
3.8557499
3.1484167
2.6141148
2.2607952
2.0149915
1.8289057
1.6870346
1.5801007
1.4990111
1.4370546
1.3895004
1.3527194
1.3239591
1.3012212
1.2830719
1.2684705
1.2566485
1.2470289
1.2391689
1.2327266
1.2274319
22.185754
21.771238
20.431413
17.555326
13.819255
10.353578
7.7424717
5.9121719
4.7125095
3.854967
3.1472585
2.6128753
2.2595919
2.013807
1.8277713
1.6860096
1.5791873
1.4981949
1.4363196
1.3888297
1.3520979
1.3233746
1.3006653
1.2825377
1.2679538
1.2561455
1.2465363
1.2386852
1.2322499
1.2269606
22.188324
21.775869
20.443126
17.575104
13.838672
10.367208
7.7500643
5.9154898
4.7130713
3.8541903
3.1461054
2.6116387
2.2583903
2.0126246
1.8266419
1.684986
1.5782763
1.4973814
1.4355859
1.3881609
1.3514777
1.3227913
1.3001105
1.282005
1.2674379
1.2556435
1.2460452
1.2382028
1.2317739
1.2264902
22.190894
21.780485
20.454801
17.594884
13.858133
10.380911
7.7576975
5.9188271
4.713643
3.8534203
3.1449574
2.6104048
2.2571899
2.0114445
1.8255137
1.6839648
1.5773671
1.4965701
1.4348548
1.3874934
1.3508589
1.3222097
1.2995572
1.2814736
1.2669234
1.2551428
1.2455554
1.2377216
1.2312993
1.2260214
22.193464
21.785086
20.466432
17.614663
13.877624
10.394692
7.7653695
5.9221851
4.7142249
3.8526572
3.1438141
2.6091738
2.2559913
2.0102662
1.8243863
1.6829465
1.5764599
1.4957602
1.4341259
1.3868273
1.3502417
1.3216296
1.2990051
1.2809434
1.2664104
1.2546429
1.2450665
1.2372412
1.2308261
1.2255539
22.196034
21.789674
20.47802
17.634446
13.897157
10.408551
7.7730837
5.9255631
4.7148174
3.8519008
3.1426754
2.6079457
2.254795
2.0090892
1.8232629
1.6819301
1.5755556
1.4949521
1.4333982
1.3861632
1.3496262
1.3210508
1.2984543
1.2804144
1.2658987
1.2541443
1.2445787
1.2367618
1.2303542
1.2250873
22.198604
21.794248
20.489562
17.654226
13.916723
10.422488
7.7808361
5.9289604
4.7154207
3.8511513
3.1415411
2.6067203
2.2536001
2.0079145
1.8221418
1.6809158
1.5746532
1.4941471
1.432672
1.3855011
1.3490123
1.3204733
1.297905
1.2798866
1.265388
1.2536472
1.2440918
1.2362836
1.2298829
1.2246214
22.201174
21.798808
20.50106
17.674008
13.936324
10.436506
7.7886313
5.932378
4.716035
3.8504085
3.1404114
2.6054974
2.2524065
2.0067419
1.8210213
1.6799038
1.5737524
1.4933436
1.4319482
1.3848404
1.3483996
1.3198972
1.297357
1.2793603
1.2648783
1.2531513
1.2436065
1.235807
1.2294126
1.2241566
22.203744
21.803354
20.51252
17.693788
13.955961
10.450604
7.7964648
5.9358172
4.7166606
3.8496725
3.1392861
2.6042772
2.2512148
2.0055703
1.8199033
1.6788944
1.5728541
1.4925415
1.4312265
1.3841809
1.3477884
1.3193228
1.2968103
1.2788352
1.2643699
1.2526564
1.2431224
1.2353314
1.2289434
1.2236931
22.206313
21.807887
20.523937
17.713566
13.975626
10.464786
7.8043404
5.939277
4.7172977
3.8489433
3.1381653
2.6030598
2.2500254
2.0044008
1.818789
1.6778866
1.5719583
1.4917414
1.430506
1.3835233
1.3471788
1.3187495
1.2962648
1.2783113
1.263863
1.2521624
1.2426393
1.2348567
1.2284757
1.223231
22.208883
21.812409
20.535309
17.733344
13.995329
10.47905
7.8122554
5.9427569
4.7179464
3.848221
3.1370486
2.6018449
2.2488373
2.0032332
1.8176752
1.6768809
1.5710639
1.4909442
1.4297868
1.3828676
1.3465708
1.3181775
1.2957204
1.2777884
1.2633572
1.2516695
1.242157
1.2343827
1.2280091
1.2227697
22.211452
21.81692
20.546635
17.753118
14.015058
10.4934
7.8202112
5.9462583
4.7186067
3.8475055
3.135936
2.6006328
2.2476505
2.0020672
1.8165624
1.6758781
1.5701714
1.4901483
1.4290701
1.3822133
1.3459642
1.3176069
1.2951777
1.2772669
1.2628525
1.2511782
1.2416758
1.23391
1.2275434
1.2223093
22.214021
21.82142
20.557918
17.772892
14.034823
10.507835
7.8282078
5.9497823
4.7192787
3.8467972
3.1348277
2.5994233
2.2464658
2.0009022
1.8154543
1.6748766
1.5692815
1.4893536
1.4283554
1.3815602
1.3453586
1.3170377
1.2946361
1.2767466
1.2623486
1.250688
1.241196
1.2334387
1.2270784
1.2218497
22.21659
21.82591
20.569163
17.792662
14.054615
10.522356
7.8362436
5.9533274
4.7199625
3.8460963
3.133724
2.5982167
2.2452831
1.9997393
1.8143469
1.6738774
1.5683937
1.4885614
1.4276418
1.3809087
1.3447548
1.3164699
1.2940957
1.2762277
1.2618461
1.2501988
1.2407174
1.2329686
1.2266144
1.2213913
22.219158
21.830391
20.580364
17.81243
14.074438
10.536964
7.8443212
5.956894
4.7206582
3.8454029
3.1326248
2.5970129
2.2441016
1.9985781
1.81324
1.6728804
1.567507
1.4877716
1.4269294
1.3802591
1.3441523
1.3159032
1.2935563
1.2757096
1.2613449
1.2497103
1.2402398
1.2324991
1.2261518
1.2209342
22.221726
21.834858
20.591521
17.832194
14.094293
10.551656
7.8524368
5.9604838
4.721366
3.844717
3.1315301
2.595812
2.2429214
1.9974177
1.8121369
1.6718853
1.5666227
1.4869828
1.4262195
1.3796111
1.3435515
1.3153379
1.2930184
1.2751926
1.2608449
1.249223
1.2397629
1.2320305
1.2256905
1.2204782
22.224294
21.839311
20.602631
17.851953
14.114183
10.566427
7.8605948
5.9640971
4.722086
3.8440385
3.1304397
2.5946138
2.2417434
1.9962589
1.8110356
1.670892
1.5657407
1.4861953
1.4255114
1.3789641
1.3429515
1.3147737
1.2924817
1.274677
1.2603457
1.248737
1.2392869
1.2315629
1.2252299
1.2200229
22.226861
21.843751
20.6137
17.871712
14.134131
10.581261
7.8687906
5.9677325
4.7228186
3.8433674
3.1293536
2.5934186
2.2405671
1.995102
1.8099348
1.6699005
1.5648603
1.4854107
1.4248044
1.3783186
1.3423531
1.3142111
1.2919462
1.2741626
1.2598475
1.2482523
1.2388123
1.2310968
1.2247701
1.2195683
22.22943
21.848179
20.62473
17.891462
14.154128
10.596159
7.8770294
5.9713911
4.7235636
3.8427038
3.1282722
2.5922264
2.2393919
1.9939462
1.808836
1.6689118
1.5639811
1.4846278
1.4240986
1.3776748
1.341756
1.3136496
1.2914117
1.2736493
1.2593503
1.2477684
1.2383389
1.2306317
1.224311
1.2191146
22.231999
21.852593
20.635718
17.911211
14.174183
10.611121
7.8853067
5.9750744
4.7243214
3.8420474
3.1271954
2.5910373
2.2382182
1.9927912
1.8077406
1.6679242
1.5631047
1.483846
1.423395
1.3770327
1.3411605
1.3130892
1.2908782
1.2731369
1.2588546
1.2472852
1.2378665
1.2301674
1.2238532
1.2186624
22.234569
21.856994
20.646661
17.930952
14.194288
10.626146
7.8936272
5.9787811
4.725092
3.8413985
3.1261233
2.5898511
2.2370464
1.9916379
1.8066455
1.6669386
1.5622302
1.4830655
1.4226933
1.3763916
1.3405661
1.31253
1.2903462
1.2726254
1.2583599
1.246803
1.2373947
1.2297037
1.2233967
1.2182112
22.237138
21.861383
20.657558
17.950687
14.214447
10.641236
7.9019871
5.9825109
4.7258754
3.8407569
3.1250557
2.5886678
2.2358762
1.990486
1.8055511
1.6659554
1.5613569
1.4822881
1.4219927
1.3757517
1.3399728
1.311972
1.2898153
1.2721153
1.2578661
1.2463222
1.2369238
1.229241
1.2229411
1.2177607
22.239706
21.86576
20.668413
17.970417
14.234661
10.65639
7.9103902
5.9862654
4.726672
3.8401226
3.1239924
2.5874876
2.2347069
1.9893345
1.8044609
1.6649735
1.5604853
1.4815118
1.421293
1.3751134
1.3393808
1.3114154
1.2892854
1.2716063
1.257373
1.2458424
1.2364539
1.2287794
1.2224859
1.2173108
22.242274
21.870125
20.67923
17.990134
14.254923
10.671609
7.918834
5.9900453
4.7274817
3.8394959
3.1229334
2.5863104
2.2335389
1.9881843
1.8033712
1.6639935
1.5596162
1.4807365
1.4205954
1.3744769
1.3387902
1.3108597
1.2887565
1.2710983
1.2568809
1.2453635
1.2359853
1.2283191
1.2220316
1.2168616
22.244841
21.874479
20.690006
18.009848
14.275243
10.686894
7.9273208
5.9938486
4.7283048
3.8388769
3.121879
2.5851362
2.2323728
1.9870355
1.8022818
1.6630151
1.5587485
1.4799627
1.4198998
1.3738414
1.3382009
1.3103052
1.2882285
1.2705912
1.2563902
1.2448853
1.2355177
1.2278595
1.2215781
1.2164136
22.247407
21.878825
20.700737
18.029548
14.295611
10.702242
7.9358496
5.9976766
4.7291413
3.8382657
3.1208292
2.5839648
2.231208
1.9858875
1.8011956
1.6620391
1.5578818
1.4791918
1.4192051
1.3732068
1.3376126
1.3097517
1.2877019
1.2700848
1.2559005
1.2444078
1.2350507
1.2274006
1.2211261
1.215967
22.249975
21.883159
20.711423
18.04924
14.316036
10.717658
7.9444214
6.001531
4.7299913
3.8376623
3.1197839
2.5827964
2.2300441
1.9847399
1.8001111
1.6610641
1.5570174
1.4784218
1.4185112
1.3725736
1.3370253
1.3091992
1.2871761
1.2695796
1.2554115
1.2439315
1.2345842
1.2269421
1.2206748
1.2155208
22.252543
21.887486
20.722065
18.068922
14.33651
10.733138
7.9530364
6.0054103
4.7308546
3.8370667
3.118743
2.5816308
2.2288815
1.9835937
1.7990269
1.6600908
1.5561551
1.4776526
1.4178192
1.3719422
1.3364392
1.3086482
1.2866516
1.2690756
1.2549232
1.2434564
1.2341186
1.2264848
1.2202241
1.2150752
22.255112
21.891802
20.732669
18.088589
14.357038
10.748684
7.9616946
6.0093145
4.7317315
3.8364788
3.1177064
2.5804682
2.2277206
1.9824488
1.7979443
1.6591199
1.5552937
1.476885
1.4171293
1.3713119
1.3358547
1.3080978
1.2861277
1.2685725
1.2544357
1.2429821
1.2336544
1.2260288
1.219774
1.2146302
22.25768
21.896106
20.743234
18.10825
14.37762
10.764297
7.9703971
6.0132455
4.7326221
3.8358988
3.1166741
2.579308
2.226561
1.9813044
1.796865
1.6581501
1.5544335
1.4761202
1.4164401
1.3706823
1.335271
1.3075487
1.2856047
1.2680701
1.2539496
1.2425083
1.2331912
1.2255735
1.2193246
1.2141861
22.260247
21.900398
20.753756
18.127892
14.39825
10.779976
7.9791431
6.0172034
4.7335266
3.8353267
3.1156464
2.5781504
2.2254023
1.9801611
1.7957859
1.657182
1.5535757
1.4753559
1.4157515
1.3700539
1.334688
1.3070002
1.2850829
1.2675683
1.2534642
1.242035
1.2327284
1.2251187
1.2188763
1.2137432
22.262813
21.904677
20.764232
18.147525
14.418938
10.795722
7.9879345
6.0211866
4.7344453
3.8347625
3.1146233
2.5769952
2.2242451
1.9790197
1.7947075
1.6562154
1.5527195
1.4745925
1.4150647
1.3694269
1.3341063
1.306453
1.284562
1.2670677
1.2529797
1.2415629
1.2322661
1.2246644
1.2184292
1.2133012
22.265377
21.908945
20.774665
18.167142
14.439673
10.811534
7.9967699
6.025197
4.7353783
3.8342063
3.1136049
2.5758424
2.2230896
1.9778794
1.7936327
1.6552508
1.551864
1.4738308
1.4143798
1.3688014
1.3335257
1.3059068
1.284042
1.2665681
1.2524956
1.2410919
1.2318045
1.2242108
1.2179825
1.2128596
22.26794
21.9132
20.785059
18.186742
14.460464
10.827413
8.0056514
6.0292358
4.7363258
3.8336581
3.1125911
2.5746919
2.2219353
1.9767397
1.7925587
1.6542874
1.5510101
1.4730715
1.4136957
1.3681765
1.3329464
1.3053614
1.2835227
1.2660694
1.2520123
1.2406217
1.2313442
1.2237585
1.2175363
1.2124184
22.270502
21.917444
20.795416
18.206331
14.481305
10.843361
8.0145775
6.0333007
4.737288
3.8331181
3.1115818
2.5735436
2.2207818
1.9756017
1.7914848
1.653325
1.5501583
1.4723125
1.4130121
1.3675524
1.3323675
1.3048169
1.283004
1.2655712
1.2515301
1.2401519
1.2308847
1.223307
1.2170904
1.2119776
22.273063
21.921676
20.805732
18.225898
14.502197
10.859374
8.0235505
6.0373932
4.7382652
3.8325863
3.110577
2.5723978
2.2196298
1.974465
1.7904134
1.6523651
1.5493075
1.4715542
1.4123299
1.3669296
1.3317898
1.304273
1.2824867
1.2650735
1.2510489
1.2396826
1.2304258
1.2228561
1.2166455
1.2115381
22.275622
21.925896
20.816002
18.245453
14.523144
10.875456
8.0325686
6.0415151
4.7392576
3.8320629
3.1095771
2.5712544
2.2184793
1.9733289
1.789344
1.6514058
1.5484572
1.4707979
1.4116497
1.3663083
1.3312128
1.3037304
1.28197
1.2645769
1.2505682
1.239214
1.2299672
1.2224054
1.2162018
1.2110996
22.278179
21.930105
20.826229
18.264987
14.544137
10.891605
8.0416342
6.0456642
4.7402651
3.8315482
3.1085822
2.5701134
2.2173298
1.9721939
1.7882747
1.6504482
1.5476091
1.4700434
1.4109702
1.3656877
1.3306371
1.3031886
1.2814542
1.2640812
1.250088
1.2387466
1.2295092
1.2219552
1.2157587
1.2106615
22.280735
21.934306
20.836415
18.284501
14.565187
10.907821
8.0507455
6.0498413
4.7412877
3.831042
3.1075922
2.5689746
2.2161811
1.9710603
1.7872063
1.6494916
1.5467627
1.4692892
1.4102911
1.3650676
1.3300621
1.3026474
1.2809388
1.2635863
1.2496082
1.23828
1.229052
1.221506
1.2153159
1.2102236
22.283289
21.938498
20.846565
18.304001
14.586283
10.924107
8.0599048
6.0540484
4.7423253
3.8305445
3.106607
2.567838
2.2150337
1.9699275
1.7861408
1.6485366
1.5459166
1.4685356
1.4096131
1.3644486
1.3294878
1.302107
1.2804241
1.2630919
1.2491296
1.2378138
1.2285959
1.2210579
1.2148734
1.2097862
22.285842
21.942679
20.856677
18.323474
14.607433
10.94046
8.0691107
6.058284
4.7433782
3.8300557
3.1056266
2.5667039
2.2138877
1.968795
1.7850755
1.6475826
1.5450712
1.4677839
1.4089369
1.3638308
1.3289143
1.3015671
1.2799105
1.2625978
1.2486517
1.2373478
1.2281404
1.2206102
1.2144314
1.2093493
22.288393
21.946851
20.866747
18.342933
14.628633
10.956881
8.078365
6.0625481
4.7444465
3.8295757
3.1046509
2.5655721
2.2127423
1.9676639
1.7840102
1.6466294
1.5442282
1.4670338
1.4082616
1.363214
1.3283416
1.3010285
1.2793975
1.2621047
1.2481746
1.2368824
1.2276851
1.2201628
1.2139905
1.2089137
22.290943
21.951017
20.876772
18.362366
14.649881
10.973371
8.0876666
6.0668429
4.7455304
3.8291043
3.1036803
2.5644425
2.2115976
1.9665337
1.7829474
1.645678
1.543386
1.4662838
1.4075864
1.3625975
1.32777
1.3004902
1.2788852
1.2616123
1.2476976
1.236418
1.2272301
1.2197156
1.2135504
1.2084786
22.293492
21.955172
20.886755
18.381776
14.671183
10.989929
8.0970171
6.0711673
4.7466303
3.8286419
3.1027149
2.5633151
2.2104542
1.9654037
1.7818856
1.6447271
1.542544
1.4655341
1.4069119
1.3619818
1.3271988
1.2999529
1.2783732
1.2611207
1.2472209
1.2359544
1.2267756
1.219269
1.2131106
1.2080437
22.296041
21.959315
20.896699
18.401168
14.692532
11.006556
8.1064159
6.0755208
4.7477462
3.8281883
3.1017546
2.5621901
2.2093118
1.9642743
1.7808234
1.6437774
1.541703
1.4647865
1.4062392
1.3613669
1.3266283
1.2994158
1.2778617
1.2606294
1.2467451
1.2354912
1.2263222
1.2188235
1.2126709
1.207609
22.298588
21.963447
20.90661
18.42053
14.713932
11.023252
8.1158637
6.0799058
4.7488784
3.8277436
3.1007995
2.5610673
2.2081699
1.9631461
1.7797626
1.6428284
1.5408641
1.46404
1.4055674
1.3607534
1.3260584
1.2988793
1.2773513
1.2601384
1.2462702
1.2350282
1.2258696
1.2183787
1.2122315
1.2071746
22.301133
21.967568
20.916482
18.439873
14.735381
11.040016
8.125361
6.0843213
4.7500273
3.827308
3.0998495
2.5599468
2.2070287
1.9620182
1.7787035
1.6418807
1.5400255
1.4632936
1.4048956
1.36014
1.3254893
1.2983439
1.2768413
1.2596479
1.2457958
1.2345653
1.225417
1.2179339
1.2117927
1.206741
22.303676
21.971678
20.926312
18.459188
14.756879
11.056849
8.1349075
6.0887666
4.7511927
3.8268815
3.0989045
2.5588286
2.2058885
1.9608903
1.7776442
1.6409336
1.5391867
1.4625472
1.4042242
1.359527
1.3249209
1.2978087
1.276332
1.2591584
1.2453216
1.2341034
1.2249647
1.2174893
1.2113551
1.2063085
22.306217
21.975777
20.936098
18.478475
14.778428
11.073753
8.1445046
6.0932442
4.7523744
3.8264641
3.0979646
2.5577124
2.2047491
1.9597633
1.7765849
1.6399868
1.5383495
1.4618029
1.4035542
1.3589149
1.3243528
1.2972743
1.2758227
1.2586694
1.2448475
1.2336422
1.2245124
1.2170448
1.2109177
1.205876
22.308756
21.979865
20.945844
18.497743
14.800022
11.090723
8.1541508
6.0977529
4.7535723
3.8260559
3.0970302
2.5565985
2.2036101
1.9586369
1.7755277
1.6390416
1.5375139
1.4610595
1.4028853
1.3583037
1.3237854
1.29674
1.2753138
1.2581807
1.244374
1.2331814
1.2240612
1.2166014
1.2104804
1.2054436
22.311292
21.983942
20.955554
18.516975
14.821668
11.107764
8.1638487
6.102292
4.7547869
3.825657
3.0961011
2.5554869
2.2024715
1.9575102
1.7744706
1.6380965
1.5366779
1.4603159
1.4022163
1.3576929
1.3232181
1.2962061
1.2748058
1.257692
1.2439011
1.2327206
1.2236106
1.2161586
1.210043
1.2050112
22.313829
21.988008
20.965231
18.536185