/*--------------------------------*- C++ -*----------------------------------*\
| =========                 |                                                 |
| \\      /  F ield         | OpenFOAM: The Open Source CFD Toolbox           |
|  \\    /   O peration     | Version:  v2012                                 |
|   \\  /    A nd           | Website:  www.openfoam.com                      |
|    \\/     M anipulation  |                                                 |
\*---------------------------------------------------------------------------*/
FoamFile
{
    version     2.0;
    format      ascii;
    class       volScalarField;
    location    "900";
    object      T;
}
// * * * * * * * * * * * * * * * * * * * * * * * * * * * * * * * * * * * * * //

dimensions      [0 0 0 1 0 0 0];


internalField   nonuniform List<scalar> 
24000
(
42.83636
43.174601
44.43034
47.834569
54.885311
66.827364
83.897343
105.31182
128.171
153.78814
186.80126
223.95995
258.30847
289.12307
318.11903
345.15804
369.18555
389.94877
407.56335
422.24723
434.34549
444.27966
452.44256
459.16299
464.70677
469.28758
473.0777
476.21682
478.81874
480.97657
42.834861
43.171212
44.419394
47.808599
54.840431
66.766727
83.830713
105.26
128.14839
153.79746
186.8495
224.04778
258.43711
289.29207
318.32487
345.39264
369.4363
390.20609
407.82034
422.50022
434.59347
444.52288
452.68169
459.39875
464.93983
469.51849
473.30694
476.44477
479.04569
481.20276
42.833334
43.167749
44.408298
47.782577
54.795137
66.707324
83.768417
105.21722
128.13801
153.81989
186.91339
224.15376
258.58295
289.47741
318.54733
345.64191
369.69879
390.47345
408.08658
422.76162
434.84908
444.77314
452.92748
459.64099
465.1793
469.75582
473.54262
476.67916
479.2791
481.43541
42.831804
43.164278
44.397221
47.756664
54.749991
66.64879
83.707864
105.17599
128.12904
153.84483
186.97905
224.25792
258.72171
289.6525
318.75358
345.86491
369.92662
390.69994
408.30857
422.9782
435.06088
444.98116
453.13257
459.84377
465.38024
469.95528
473.74087
476.87644
479.4756
481.63128
42.830273
43.160807
44.386167
47.730879
54.704911
66.590696
83.648202
105.13592
128.12182
153.8725
187.04839
224.36611
258.86352
289.83127
318.965
346.09343
370.1616
390.93556
408.54127
423.20627
435.28436
445.2007
453.3489
460.05751
465.5919
470.16528
473.94954
477.08405
479.68236
481.83738
42.828742
43.157343
44.375165
47.705157
54.659875
66.532847
83.588936
105.0963
128.1155
153.90184
187.12003
224.47667
259.00735
290.01173
319.17772
346.32286
370.39705
391.17123
408.7737
423.4339
435.50736
445.41979
453.56483
460.27092
465.80329
470.37505
474.15802
477.29149
479.88896
482.04332
42.82721
43.15389
44.36421
47.679538
54.614878
66.475098
83.529813
105.05681
128.10976
153.93247
187.19351
224.58922
259.15309
290.19398
319.39219
346.55402
370.63423
391.40861
409.00779
423.66316
435.73195
445.64044
453.78229
460.48583
466.01616
470.58629
474.36794
477.50037
480.09701
482.25069
42.825679
43.15045
44.35332
47.65397
54.569911
66.417403
83.470698
105.01724
128.10437
153.96407
187.26831
224.70319
259.30011
290.3774
319.60773
346.78613
370.87224
391.64672
409.24253
423.89301
435.95708
445.86162
454.00028
460.70127
466.22957
470.79806
474.57841
477.70978
480.30559
482.45861
42.824149
43.147022
44.342475
47.628487
54.524971
66.359694
83.411499
104.97745
128.09918
153.99645
187.34412
224.81817
259.44803
290.56162
319.82394
347.01884
371.11076
391.88525
409.47763
424.12319
436.18253
446.08309
454.21856
460.917
466.44326
471.01012
474.78916
477.91949
480.51445
482.66681
42.822618
43.143607
44.331689
47.603061
54.480065
66.301971
83.352161
104.93735
128.09407
154.0295
187.42072
224.93386
259.59656
290.74631
320.04053
347.25184
371.3495
392.12393
409.71284
424.35344
436.40805
446.30464
454.43691
461.13279
466.65702
471.22225
474.99999
478.12927
480.72339
482.87508
42.821088
43.140208
44.32095
47.577699
54.435176
66.244186
83.292658
104.89687
128.08898
154.06313
187.49794
225.05005
259.74546
290.93128
320.2573
347.48491
371.58823
392.36255
409.94795
424.58359
436.63346
446.52608
454.65515
461.34849
466.87069
471.43429
475.21072
478.33896
480.93225
483.08327
42.819559
43.136828
44.310276
47.552406
54.390327
66.186358
83.232957
104.85595
128.08387
154.09733
187.57566
225.16659
259.89459
291.11638
320.47409
347.71793
371.82686
392.60102
410.18288
424.81355
436.85868
446.74732
454.87321
461.56401
467.08417
471.64615
475.42128
478.54847
481.14093
483.29129
42.81803
43.133465
44.299647
47.52716
54.345492
66.128445
83.173047
104.81455
128.07869
154.13207
187.65378
225.28337
260.04385
291.30151
320.69081
347.95081
372.06528
392.83923
410.41754
425.04322
437.08361
446.96829
455.09099
461.77925
467.29739
471.85775
475.63158
478.75773
481.34935
483.49905
42.816501
43.130115
44.289075
47.501997
54.300695
66.070472
83.112923
104.77262
128.07341
154.16737
187.73223
225.4003
260.19317
291.48659
320.9074
348.18345
372.30341
393.07712
410.65185
425.27255
437.30822
447.18894
455.30846
461.99419
467.51031
472.06905
475.84158
478.9667
481.55749
483.70652
42.814973
43.126778
44.278547
47.476873
54.255916
66.012403
83.052574
104.73013
128.06802
154.20323
187.81094
225.51729
260.34246
291.67157
321.12378
348.41582
372.5412
393.31463
410.88577
425.5015
437.53244
447.40922
455.52557
462.20877
467.72287
472.28001
476.05125
479.17533
481.76529
483.91366
42.813445
43.123453
44.268084
47.451828
54.211174
65.954265
82.992005
104.68706
128.06247
154.2397
187.88986
225.63433
260.49171
291.85641
321.33994
348.64789
372.77864
393.55177
411.11929
425.73004
437.75627
447.62911
455.7423
462.42298
467.93508
472.4906
476.26055
479.3836
481.97274
484.12045
42.811917
43.12014
44.257664
47.426826
54.166454
65.896022
82.931214
104.64336
128.05675
154.27681
187.96894
225.75136
260.64089
292.04111
321.55587
348.87964
373.01571
393.78849
411.35239
425.95816
437.97969
447.8486
455.95863
462.6368
468.14688
472.7008
476.46947
479.59148
482.1798
484.32685
42.810392
43.11684
44.247301
47.401899
54.121767
65.837706
82.870202
104.59901
128.05084
154.31464
188.04811
225.86835
260.78998
292.22564
321.77154
349.11106
373.25241
394.0248
411.58506
426.18587
438.2027
448.06769
456.17457
462.85023
468.35832
472.91064
476.67802
479.79901
482.3865
484.5329
42.808867
43.113552
44.23698
47.377023
54.077115
65.779281
82.808985
104.55398
128.0447
154.35325
188.12729
225.98526
260.93894
292.40998
321.98692
349.34213
373.4887
394.26068
411.81728
426.41313
438.42527
448.28635
456.39009
463.06325
468.56934
473.12007
476.88617
480.00613
482.5928
484.73855
42.807343
43.110277
44.226721
47.352211
54.032482
65.720777
82.747561
104.50822
128.03831
154.39278
188.20643
226.10208
261.08779
292.59413
322.20204
349.57285
373.72459
394.49612
412.04907
426.63994
438.64741
448.50458
456.6052
463.27586
468.77996
473.32909
477.09392
480.21286
482.79871
484.94381
42.805819
43.107013
44.216507
47.327465
53.987899
65.662162
82.685943
104.46202
128.03168
154.43264
188.28546
226.21879
261.2365
292.77806
322.41686
349.8032
373.96007
394.73113
412.28039
426.86631
438.8691
448.72239
456.81988
463.48806
468.99017
473.53771
477.30127
480.41918
483.00422
485.14867
42.804296
43.103762
44.20635
47.302767
53.943332
65.603465
82.624136
104.41561
128.02485
154.47234
188.36434
226.33538
261.38506
292.96178
322.63138
350.03319
374.19514
394.96569
412.51128
427.09224
439.09038
448.93979
457.03416
463.69986
469.19999
473.74595
477.50823
480.62513
483.20936
485.35315
42.802772
43.100527
44.196235
47.278151
53.898814
65.544653
82.562132
104.36898
128.01783
154.51186
188.44307
226.45182
261.53346
293.14528
322.84559
350.26279
374.42977
395.19979
412.74169
427.31771
439.3112
449.15673
457.248
463.91122
469.40938
473.95376
477.71477
480.83066
483.41407
485.55722
42.80125
43.097311
44.186177
47.253579
53.854316
65.485755
82.499938
104.32213
128.01062
154.55119
188.52163
226.56814
261.68171
293.32856
323.05952
350.49203
374.664
395.43347
412.97165
427.54273
439.53158
449.37326
457.46142
464.12218
469.61837
474.16117
477.92092
481.0358
483.6184
485.7609
42.79973
43.094107
44.176168
47.229084
53.809866
65.426741
82.437542
104.27506
128.0032
154.59033
188.60002
226.68433
261.82982
293.51163
323.27314
350.72092
374.89782
395.6667
413.20117
427.76731
439.75153
449.58935
457.67443
464.33272
469.82695
474.36817
478.12667
481.24053
483.82233
485.96419
42.798212
43.090915
44.166213
47.204639
53.765446
65.367634
82.374946
104.22777
127.99558
154.62928
188.67826
226.8004
261.97778
293.6945
323.48649
350.94945
375.13124
395.8995
413.43025
427.99146
439.97107
449.80504
457.88704
464.54287
470.03514
474.5748
478.33204
481.44489
484.02588
486.1671
42.796694
43.087734
44.156303
47.180266
53.721064
65.308411
82.312151
104.18026
127.98776
154.66806
188.75634
226.91632
262.12559
293.87716
323.69956
351.17762
375.36426
396.13188
413.65889
428.21516
440.19016
450.0203
458.09922
464.7526
470.24291
474.78101
478.53699
481.64884
484.22903
486.36961
42.795176
43.084565
44.146442
47.155951
53.676727
65.249089
82.249147
104.13251
127.97973
154.70664
188.83423
227.0321
262.27326
294.05962
323.91235
351.40546
375.59692
396.36385
413.88711
428.43846
440.40886
450.23517
458.31102
464.96195
470.45031
474.98684
478.74158
481.85242
484.43181
486.57175
42.793659
43.081407
44.136637
47.1317
53.632415
65.189651
82.185942
104.08455
127.97149
154.74504
188.91194
227.14774
262.42077
294.24186
324.12484
351.63294
375.82915
396.59538
414.11489
428.66132
440.62712
450.44962
458.5224
465.1709
470.65731
475.19228
478.94576
482.05561
484.63419
486.7735
42.792142
43.07826
44.12688
47.107521
53.588164
65.130107
82.122529
104.03635
127.96305
154.78324
188.98947
227.26323
262.56812
294.42389
324.33706
351.86006
376.061
396.8265
414.34224
428.88376
440.84498
450.66367
458.7334
465.37946
470.86393
475.39735
479.14959
482.25844
484.83622
486.97489
42.790625
43.075124
44.117172
47.083395
53.543935
65.070449
82.058905
103.98793
127.9544
154.82126
189.06681
227.37857
262.71533
294.60572
324.549
352.08686
376.29247
397.05722
414.56918
429.10578
441.06243
450.87732
458.944
465.58763
471.07016
475.60203
479.35303
482.46088
485.03787
487.1759
42.789109
43.072
44.107506
47.059346
53.499768
65.010677
81.995076
103.93927
127.94554
154.85907
189.14397
227.49376
262.86239
294.78736
324.76068
352.31333
376.52357
397.28754
414.79571
429.3274
441.27949
451.09058
459.15422
465.79543
471.27603
475.80635
479.55611
482.66297
485.23916
487.37656
42.787593
43.068887
44.097902
47.035352
53.45563
64.950792
81.931031
103.89037
127.93647
154.89668
189.22093
227.60881
263.00931
294.9688
324.97208
352.53944
376.75426
397.51742
415.0218
429.54859
441.49612
451.30344
459.36404
466.00284
471.4815
476.01028
479.7588
482.86467
485.44007
487.57684
42.786078
43.065787
44.088342
47.01143
53.411546
64.890786
81.866779
103.84125
127.92718
154.9341
189.29769
227.72372
263.15609
295.15005
325.18323
352.76525
376.98462
397.74694
415.24752
429.76941
441.7124
451.51594
459.57352
466.2099
471.68664
476.21388
479.96116
483.06604
485.64065
487.77679
42.784563
43.062701
44.078835
46.987568
53.367508
64.830668
81.80231
103.79188
127.91768
154.97131
189.37426
227.83848
263.30274
295.33113
325.39414
352.99076
377.21464
397.97609
415.47284
429.98983
441.92828
451.72805
459.7826
466.41657
471.89139
476.41709
480.16315
483.26704
485.84086
487.97638
42.783049
43.059631
44.069369
46.963775
53.323509
64.770422
81.737625
103.74228
127.90797
155.00833
189.45063
227.9531
263.44927
295.51204
325.60482
353.21595
377.44429
398.20485
415.69778
430.20987
442.14378
451.93979
459.99133
466.6229
472.0958
476.61996
480.36479
483.46769
486.04073
488.17562
42.781535
43.056574
44.059954
46.94005
53.279575
64.710062
81.672728
103.69243
127.89803
155.04515
189.52681
228.06757
263.59566
295.69277
325.81523
353.44083
377.67358
398.43321
415.9223
430.42951
442.35889
452.15115
460.19967
466.82884
472.29983
476.82247
480.56606
483.66798
486.24023
488.3745
42.780021
43.053527
44.050591
46.916386
53.235671
64.64957
81.607608
103.64234
127.88788
155.08176
189.60276
228.18189
263.74192
295.87333
326.02542
353.66544
377.90257
398.66125
416.14649
430.64881
442.57367
452.36218
460.4077
467.03448
472.50355
477.02466
480.76703
483.86797
486.43944
488.57308
42.778509
43.050491
44.04128
46.8928
53.191842
64.58896
81.542276
103.59201
127.8775
155.11817
189.6785
228.29605
263.88806
296.05373
326.23539
353.88974
378.1312
398.8889
416.37028
430.8677
442.78805
452.57282
460.61534
467.23973
472.7069
477.22648
480.96763
484.06759
486.63827
488.77129
42.776996
43.047466
44.032012
46.869272
53.148047
64.528212
81.476721
103.54143
127.8669
155.15437
189.75401
228.41007
264.03408
296.23396
326.44511
354.11374
378.35949
399.11619
416.5937
431.08624
443.00209
452.78312
460.82265
467.44466
472.90992
477.42798
481.16791
484.26689
486.83679
488.96919
42.775484
43.044452
44.022785
46.845816
53.10432
64.467344
81.410946
103.4906
127.85608
155.19035
189.8293
228.52392
264.17996
296.41401
326.6546
354.33745
378.58744
399.34312
416.81674
431.3044
443.21575
452.99305
461.0296
467.64922
473.11259
477.62912
481.36783
484.46584
487.03497
489.16674
42.773975
43.041447
44.013618
46.822425
53.060643
64.406333
81.344951
103.43953
127.84502
155.22612
189.90437
228.63763
264.32574
296.59394
326.86389
354.5609
378.8151
399.56972
417.03944
431.52223
443.42909
453.20267
461.23624
467.85348
473.31495
477.82997
481.56746
484.6645
487.23285
489.36401
42.772467
43.038454
44.004496
46.799102
53.01702
64.345198
81.27873
103.38821
127.83374
155.26166
189.97922
228.75119
264.47143
296.77372
327.07297
354.78407
379.04243
399.79596
417.26178
431.73968
443.64205
453.41193
461.44251
468.05739
473.51696
478.03047
481.76675
484.86281
487.43038
489.56093
42.77096
43.035471
43.995423
46.775849
52.973468
64.28392
81.212294
103.33663
127.82221
155.29699
190.05382
228.8646
264.61701
296.95335
327.28183
355.00697
379.26945
400.02187
417.48377
431.9568
443.85469
453.62086
461.64848
468.26098
473.71867
478.23066
481.96573
485.06082
487.62762
489.75755
42.769453
43.032498
43.986391
46.75266
52.929956
64.222504
81.145628
103.2848
127.81045
155.3321
190.12819
228.97787
264.76249
297.13285
327.49051
355.22962
379.49616
400.24743
417.7054
432.17355
444.06697
453.82943
461.85408
468.46422
473.92002
478.4305
482.16436
485.25849
487.82452
489.95383
42.767946
43.029536
43.977406
46.72955
52.886534
64.16095
81.078745
103.23271
127.79845
155.36698
190.20233
229.09099
264.90789
297.31224
327.69901
355.45202
379.7226
400.47269
417.92672
432.39
444.27895
454.03772
462.0594
468.66718
474.1211
478.63007
482.36273
485.45589
488.02114
490.14985
42.766441
43.026588
43.968473
46.706505
52.843151
64.099249
81.011636
103.18037
127.7862
155.40165
190.27623
229.20397
265.05321
297.49151
327.90732
355.67417
379.94873
400.69763
418.1477
432.6061
444.49058
454.24566
462.26438
468.86981
474.32184
478.82931
482.56076
485.65296
488.21744
490.34553
42.764936
43.023652
43.959591
46.683531
52.799853
64.037406
80.944303
103.12777
127.77371
155.43609
190.34991
229.3168
265.19846
297.67066
328.11545
355.89609
380.1746
400.92226
418.36836
432.82189
444.70191
454.4533
462.46907
469.07214
474.52229
479.02826
482.7585
485.84974
488.41345
490.54093
42.763434
43.020731
43.950751
46.660626
52.756611
63.975408
80.876749
103.0749
127.76096
155.4703
190.42333
229.4295
265.34362
297.8497
328.32341
356.11776
380.40016
401.14655
418.58866
433.03732
444.91288
454.66059
462.67341
469.27413
474.7224
479.22687
482.95591
486.04619
488.60913
490.73601
42.761935
43.01782
43.941951
46.637788
52.713439
63.913264
80.808967
103.02177
127.74794
155.50427
190.49651
229.54204
265.48873
298.02863
328.5312
356.33921
380.62547
401.37057
418.80869
433.25247
445.12358
454.86761
462.87749
469.47586
474.92226
479.42523
483.15307
486.24239
488.80457
490.93083
42.760436
43.01492
43.933201
46.615025
52.670346
63.850957
80.740968
102.96837
127.73465
155.53799
190.56945
229.65446
265.63377
298.20746
328.73881
356.56043
380.8505
401.59428
419.02839
433.46728
445.33395
455.0743
463.08123
469.67726
475.12179
479.62326
483.34991
486.43826
488.99968
491.12534
42.758938
43.012029
43.924501
46.592325
52.627306
63.788502
80.672738
102.9147
127.72109
155.57146
190.64217
229.76674
265.77876
298.38619
328.94629
356.78144
381.07527
401.81769
419.24777
433.68179
445.54401
455.2807
463.28469
469.87837
475.32103
479.82101
483.54645
486.63385
489.19451
491.31956
42.757441
43.009148
43.91585
46.569705
52.584369
63.72588
80.604292
102.86076
127.70725
155.60467
190.71467
229.8789
265.92368
298.56483
329.1536
357.00221
381.29976
402.04079
419.46683
433.89596
445.75374
455.48676
463.48782
470.07916
475.51995
480.01844
483.74269
486.82913
489.38902
491.51347
42.755945
43.006276
43.907239
46.547153
52.541484
63.663096
80.535617
102.80655
127.6931
155.63761
190.78696
229.99094
266.06854
298.74337
329.36076
357.2228
381.52402
402.26365
419.68562
434.10988
445.96322
455.69257
463.6907
470.2797
475.71863
480.21562
483.93868
487.02417
489.5833
491.70714
42.75445
43.003415
43.898667
46.52467
52.498697
63.600146
80.466724
102.75206
127.67866
155.67029
190.85903
230.10287
266.21334
298.92183
329.56779
357.44319
381.74803
402.4862
419.9041
434.32346
446.17236
455.89806
463.89325
470.47992
475.91698
480.41248
484.13435
487.21888
489.77726
491.9005
42.752956
43.000563
43.890148
46.502262
52.45598
63.537023
80.39761
102.69729
127.66392
155.70269
190.93089
230.21469
266.35806
299.10022
329.77469
357.66337
381.97179
402.70848
420.12229
434.53677
446.38123
456.10327
464.09553
470.67986
476.11507
480.60908
484.32975
487.41334
489.97095
492.09359
42.751462
42.997721
43.881676
46.479916
52.413346
63.47373
80.328276
102.64223
127.64888
155.73481
191.00253
230.32638
266.50272
299.27851
329.98145
357.88336
382.19531
402.93049
420.34019
434.74977
446.58979
456.30818
464.29751
470.87951
476.31285
480.80538
484.52486
487.60749
490.16435
492.2864
42.74997
42.994888
43.873251
46.457652
52.370805
63.410254
80.258728
102.5869
127.63352
155.76665
191.07396
230.43796
266.64732
299.45675
330.18811
358.1032
382.41863
403.15226
420.55784
434.96252
446.79811
456.51284
464.49925
471.07892
476.5104
481.00144
484.71973
487.80142
490.35752
492.47896
42.748479
42.992068
43.864865
46.435449
52.328333
63.346606
80.188962
102.53128
127.61784
155.79821
191.14517
230.54942
266.79187
299.63493
330.39466
358.32284
382.64171
403.37375
420.77518
435.17496
447.00611
456.71719
464.70067
471.27802
476.70764
481.19719
484.9143
487.99504
490.55038
492.67123
42.74699
42.989258
43.856517
46.413325
52.285977
63.282775
80.118991
102.47537
127.60186
155.82948
191.21615
230.66076
266.93634
299.81305
330.6011
358.54232
382.86459
403.595
420.99227
435.38714
447.21387
456.92129
464.90185
471.47687
476.90464
481.3927
485.10863
488.18841
490.743
492.86326
42.745501
42.986459
43.848223
46.391275
52.243688
63.21876
80.048805
102.41917
127.58556
155.86046
191.28689
230.77195
267.08077
299.99112
330.80744
358.76165
383.08725
403.81601
421.20909
435.59904
447.42133
457.12511
465.10275
471.67543
477.10135
481.58793
485.30267
488.38151
490.93535
493.055
42.744014
42.983675
43.839975
46.36929
52.201514
63.154559
79.978422
102.36267
127.56893
155.89114
191.35739
230.88303
267.22516
300.16916
331.01372
358.98085
383.30973
404.0368
421.42568
435.81071
447.62856
457.32869
465.30341
471.87377
477.29782
481.78292
485.49647
488.57437
491.12746
493.24652
42.742527
42.980901
43.831772
46.347385
52.159424
63.090166
79.907831
102.30588
127.55199
155.92153
191.42765
230.99397
267.36951
300.34719
331.21993
359.19991
383.53201
404.25735
421.642
436.0221
447.83551
457.53199
465.50378
472.07182
477.49402
481.97764
485.69
488.76695
491.31929
493.43776
42.741042
42.978136
43.823606
46.325539
52.117428
63.0256
79.83705
102.24877
127.53471
155.95162
191.49767
231.10478
267.51381
300.52519
331.42608
359.41885
383.75413
404.47769
421.8581
436.23326
448.04224
457.73506
465.70393
472.26964
477.68999
482.17212
485.88331
488.95931
491.5109
493.62877
42.739559
42.97538
43.815479
46.303779
52.075476
62.960969
79.766068
102.19136
127.51711
155.9814
191.56744
231.21543
267.65807
300.70318
331.63218
359.63766
383.97606
404.6978
422.07394
436.44415
448.24868
457.93785
465.9038
472.46718
477.88568
482.36633
486.07633
489.15139
491.70223
493.81951
42.738079
42.972634
43.807403
46.282082
52.033547
62.896279
79.694893
102.13364
127.49916
156.01088
191.63693
231.32592
267.8023
300.88119
331.83825
359.85637
384.19783
404.91772
422.28957
436.65483
448.45491
458.14043
466.10346
472.66452
478.08115
482.56033
486.26914
489.34326
491.89335
494.01005
42.7366
42.969896
43.799373
46.260459
51.991684
62.831524
79.623518
102.0756
127.48088
156.04006
191.70616
231.43624
267.94649
301.0592
332.04427
360.07497
384.41943
405.13743
422.50496
436.86525
448.66089
458.34275
466.30286
472.86159
478.27637
482.75407
486.4617
489.53488
492.08422
494.20032
42.735123
42.967167
43.791387
46.238915
51.94984
62.766706
79.551946
102.01724
127.46227
156.06892
191.77512
231.5464
268.09065
301.23724
332.25028
360.29348
384.64088
405.35694
422.72013
437.07545
448.86664
458.54485
466.50204
473.05844
478.47137
482.94759
486.65404
489.72628
492.27487
494.39039
42.733647
42.964448
43.783437
46.217433
51.90806
62.701831
79.480176
101.95856
127.44331
156.09748
191.8438
231.65637
268.23479
301.41532
332.45629
360.51189
384.86216
405.57624
422.93506
437.2854
449.07213
458.74669
466.70096
473.25503
478.66611
483.14085
486.84612
489.91741
492.46526
494.58019
42.732173
42.961737
43.775524
46.196037
51.866311
62.636895
79.408208
101.89957
127.424
156.12572
191.91221
231.76616
268.37893
301.59347
332.66231
360.73025
385.08333
405.79538
423.14982
437.49517
449.27745
458.94836
466.8997
473.45145
478.86067
483.33393
487.03802
490.10838
492.65548
494.76982
42.730701
42.959036
43.767659
46.174701
51.824609
62.571905
79.336043
101.84025
127.40436
156.15366
191.98035
231.87575
268.52306
301.77171
332.86836
360.94853
385.30436
406.01434
423.36436
437.70471
449.48253
459.14978
467.0982
473.64763
479.055
483.52678
487.22969
490.2991
492.84546
494.95922
42.72923
42.956344
43.759842
46.153453
51.78296
62.506855
79.263679
101.78061
127.38437
156.18128
192.0482
231.98513
268.6672
301.95005
333.07446
361.16676
385.52525
406.23312
423.5787
437.91405
449.6874
459.351
467.2965
473.8436
479.24912
483.71942
487.42115
490.48963
493.03525
495.14842
42.72776
42.953664
43.752068
46.132277
51.741341
62.441747
79.19112
101.72065
127.36402
156.20859
192.11576
232.09429
268.81135
302.12853
333.2806
361.38493
385.74602
406.45171
423.79283
438.12316
449.89205
459.55199
467.49457
474.03935
479.44301
483.91184
487.61239
490.67993
493.2248
495.33739
42.726296
42.950993
43.744329
46.111169
51.699793
62.376589
79.118359
101.66035
127.34332
156.23558
192.18305
232.2032
268.95555
302.30718
333.48683
361.60308
385.9667
406.67018
424.00682
438.33213
450.09656
459.75284
467.6925
474.23495
479.63676
484.10411
487.80349
490.87009
493.41422
495.52623
42.724834
42.948333
43.736627
46.090152
51.65827
62.311374
79.045405
101.59973
127.32227
156.26227
192.25006
232.31186
269.09978
302.48603
333.69314
361.82117
386.18723
406.88846
424.2206
438.54087
450.30083
459.95346
467.8902
474.43033
479.83029
484.29616
487.99436
491.06003
493.60342
495.71484
42.723373
42.945686
43.728967
46.069191
51.616816
62.246109
78.972246
101.53877
127.30086
156.28864
192.3168
232.42021
269.24405
302.66514
333.89952
362.03921
386.40765
407.10659
424.4342
438.74943
450.50493
460.1539
468.08772
474.62553
480.02364
484.48804
488.18506
491.24979
493.79244
495.90328
42.721914
42.943047
43.721355
46.048328
51.575401
62.180788
78.898897
101.47748
127.2791
156.31469
192.38326
232.52824
269.38839
302.84456
334.10595
362.25718
386.62794
407.32455
424.64761
438.95781
450.70883
460.35415
468.28505
474.82053
480.2168
484.67972
488.37556
491.43936
493.98127
496.09153
42.720456
42.940417
43.713788
46.027531
51.534035
62.115417
78.82534
101.41585
127.25697
156.34043
192.44946
232.63589
269.53277
303.02439
334.31244
362.47511
386.84815
407.5424
424.86091
439.16606
450.91262
460.55428
468.48226
475.01542
480.40984
484.87128
488.56596
491.62882
494.16999
496.27967
42.719001
42.937796
43.706256
46.006808
51.492731
62.050004
78.751591
101.35388
127.23447
156.36584
192.51539
232.74341
269.67712
303.20424
334.51891
362.69294
387.06821
407.76008
425.07401
439.3741
451.11619
460.7542
468.67926
475.21011
480.60267
485.06264
488.75614
491.81807
494.3585
496.4676
42.717547
42.935182
43.698759
45.986178
51.451461
61.984536
78.677634
101.29157
127.21161
156.39093
192.58106
232.85079
269.82147
303.38413
334.72536
362.91072
387.28818
407.97763
425.28697
439.58201
451.31963
460.95399
468.87613
475.40465
480.79537
485.25387
488.94619
492.00719
494.54688
496.6554
42.716095
42.932578
43.691296
45.965605
51.410264
61.919024
78.603484
101.22891
127.18838
156.4157
192.64647
232.95804
269.9658
303.56404
334.9318
363.12843
387.50805
408.19505
425.49978
439.78975
451.5229
461.15361
469.07283
475.59903
480.9879
485.44493
489.13608
492.19614
494.73509
496.84304
42.714646
42.929982
43.683883
45.945133
51.369103
61.853467
78.529127
101.1659
127.16477
156.44013
192.71162
233.06517
270.11015
303.74401
335.13827
363.34612
387.72784
408.41237
425.71249
439.9974
451.72608
461.35313
469.26944
475.79332
481.18034
485.6359
489.32587
492.385
494.92322
497.03059
42.713198
42.927394
43.676516
45.924725
51.328009
61.787862
78.454577
101.10255
127.14078
156.46423
192.7765
233.17215
270.25448
303.92401
335.34473
363.56375
387.94755
408.62957
425.92505
440.20489
451.92909
461.55249
469.46588
475.98744
481.37261
485.82669
489.51549
492.57369
495.11118
497.21797
42.711752
42.924814
43.669184
45.904399
51.286966
61.722221
78.379819
101.03884
127.1164
156.48799
192.8411
233.27899
270.39882
304.10408
335.55121
363.78137
388.1672
408.8467
426.13751
440.41227
452.132
461.75175
469.66222
476.18145
481.56478
486.01739
489.70502
492.76228
495.29903
497.40525
42.710308
42.922242
43.661885
45.884162
51.245973
61.656532
78.304869
100.97477
127.09164
156.5114
192.90542
233.3857
270.54317
304.28421
335.75772
363.99895
388.38678
409.0637
426.34985
440.61952
452.33478
461.95086
469.85842
476.37533
481.75681
486.20794
489.8944
492.95074
495.48675
497.59239
42.708867
42.919679
43.654621
45.863986
51.20505
61.590803
78.229712
100.91036
127.06648
156.53447
192.96946
233.49228
270.68754
304.46441
335.96428
364.21654
388.60632
409.28066
426.56213
440.82671
452.53749
462.14992
470.05455
476.56915
481.94878
486.39844
490.08372
493.13913
495.6744
497.77947
42.707427
42.917128
43.647396
45.843915
51.164168
61.525045
78.154364
100.84558
127.04094
156.5572
193.03322
233.59873
270.83192
304.6447
336.17089
364.43413
388.82583
409.49755
426.77431
441.03379
452.74008
462.34885
470.25056
476.76283
482.14061
486.5888
490.27291
493.32738
495.86193
497.96642
42.705989
42.914585
43.640219
45.823906
51.123363
61.459239
78.078811
100.78045
127.01502
156.57957
193.0967
233.70505
270.97633
304.82509
336.37757
364.65176
389.04534
409.71441
426.98644
441.24081
452.94261
462.54772
470.44651
476.95646
482.33238
486.7791
490.46204
493.51558
496.04939
498.1533
42.704554
42.91205
43.633081
45.803985
51.082604
61.393402
78.003067
100.71497
126.98869
156.6016
193.1599
233.81123
271.12079
305.00558
336.58433
364.86941
389.26482
409.9312
427.19847
441.44773
453.14505
462.74649
470.64236
477.14997
482.52405
486.96929
490.65105
493.70367
496.23674
498.34008
42.703122
42.909528
43.625976
45.784152
51.04191
61.327534
77.927119
100.64912
126.96197
156.62327
193.2228
233.91729
271.26529
305.18619
336.79118
365.08711
389.48432
410.14799
427.41051
441.65464
453.34746
462.94524
470.83818
477.34347
482.71569
487.15946
490.84005
493.89173
496.42407
498.52684
42.701694
42.907015
43.618903
45.764381
51.001283
61.261625
77.850981
100.5829
126.93486
156.64459
193.28542
234.02324
271.40982
305.36692
336.99814
365.30487
389.70384
410.36477
427.6225
441.86149
453.54981
463.14391
471.03392
477.53688
482.90725
487.34953
491.02895
494.0797
496.6113
498.7135
42.700267
42.904509
43.611863
45.744718
50.960708
61.195692
77.774639
100.51633
126.90734
156.66555
193.34773
234.12905
271.55442
305.54779
337.20522
365.52272
389.92341
410.58155
427.83447
442.06832
453.75213
463.34256
471.22963
477.73026
483.09877
487.53958
491.21782
494.26764
496.79851
498.90014
42.698843
42.902012
43.604866
45.725118
50.920207
61.129727
77.698108
100.4494
126.87942
156.68615
193.40976
234.23474
271.69909
305.7288
337.41242
365.74063
390.14299
410.79832
428.04641
442.2751
453.95439
463.54115
471.42528
477.92358
483.29023
487.72956
491.40662
494.45551
496.98565
499.0867
42.697421
42.899522
43.597914
45.705608
50.879755
61.063728
77.621375
100.38209
126.85109
156.70638
193.4715
234.34031
271.84382
305.90998
337.61976
365.95866
390.36267
411.01515
428.2584
442.48192
454.15669
463.73976
471.62096
478.11691
483.4817
487.91955
491.59544
494.64339
497.1728
499.27328
42.696001
42.897039
43.590996
45.686186
50.839383
60.997712
77.544451
100.31442
126.82234
156.72625
193.53294
234.44577
271.98862
306.09132
337.82727
366.17681
390.58242
411.23202
428.47039
442.68872
454.35896
463.93834
471.81659
478.3102
483.67313
488.1095
491.78421
494.83123
497.3599
499.45981
42.694584
42.894565
43.584109
45.666826
50.79907
60.931664
77.467328
100.24638
126.79318
156.74575
193.59407
234.55111
272.1335
306.27284
338.03494
366.39508
390.80225
411.44893
428.6824
442.89554
454.56125
464.13693
472.01223
478.5035
483.86457
488.29945
491.97298
495.01906
497.547
499.64634
42.693169
42.892097
43.577253
45.647578
50.758822
60.86559
77.390014
100.17798
126.76361
156.76488
193.6549
234.65631
272.27846
306.45453
338.24277
366.61347
391.02215
411.66589
428.89445
443.10238
454.76354
464.33552
472.20787
478.69679
484.05599
488.48938
492.16173
495.20688
497.73408
499.83285
42.691757
42.889638
43.570429
45.628395
50.718647
60.799506
77.312504
100.1092
126.73363
156.78363
193.71541
234.76141
272.42351
306.63642
338.4508
366.83203
391.24221
411.88297
429.10659
443.3093
454.96592
464.53419
472.40358
478.89014
484.24747
488.67938
492.35054
495.39476
497.92123
500.01942
42.690349
42.887186
43.563649
45.609297
50.67853
60.73339
77.234803
100.04006
126.70323