/*--------------------------------*- C++ -*----------------------------------*\
| =========                 |                                                 |
| \\      /  F ield         | OpenFOAM: The Open Source CFD Toolbox           |
|  \\    /   O peration     | Version:  v2012                                 |
|   \\  /    A nd           | Website:  www.openfoam.com                      |
|    \\/     M anipulation  |                                                 |
\*---------------------------------------------------------------------------*/
FoamFile
{
    version     2.0;
    format      ascii;
    class       volVectorField;
    location    "900";
    object      U;
}
// * * * * * * * * * * * * * * * * * * * * * * * * * * * * * * * * * * * * * //

dimensions      [0 1 -1 0 0 0 0];


internalField   nonuniform List<vector> 
24000
(
(29.732181 -0.0057743233 0)
(29.896494 -0.016557738 0)
(30.39081 -0.021122716 0)
(31.355628 -0.013940294 0)
(32.723737 -0.0017431145 0)
(34.342361 0.010341931 0)
(35.99636 0.019890555 0)
(37.487083 0.026712238 0)
(38.551414 0.029302037 0)
(39.166755 0.029205317 0)
(39.188266 0.028185628 0)
(38.26351 0.025841109 0)
(36.50109 0.023135281 0)
(34.128111 0.02032329 0)
(31.147723 0.016164659 0)
(27.676189 0.013207355 0)
(24.027174 0.010665096 0)
(20.441536 0.0082540347 0)
(17.085234 0.00607756 0)
(14.07631 0.0044409257 0)
(11.462126 0.0031625106 0)
(9.2272867 0.0021834126 0)
(7.3313216 0.001454883 0)
(5.7292285 0.00092929888 0)
(4.3788521 0.00056297106 0)
(3.2427846 0.00031743586 0)
(2.2885006 0.00016116814 0)
(1.4879949 6.8431968e-05 0)
(0.81729917 2.0474154e-05 0)
(0.2559916 1.181137e-06 0)
(29.719339 -0.0063879283 0)
(29.883827 -0.018443035 0)
(30.377031 -0.023531006 0)
(31.339657 -0.015187936 0)
(32.705394 -0.0002624404 0)
(34.321357 0.014725083 0)
(35.973056 0.026176021 0)
(37.462544 0.034161972 0)
(38.52643 0.036167264 0)
(39.141489 0.034547695 0)
(39.162729 0.032131037 0)
(38.23737 0.029342248 0)
(36.473477 0.026103819 0)
(34.097781 0.022270796 0)
(31.113908 0.018274323 0)
(27.638737 0.014459763 0)
(23.98672 0.011105941 0)
(20.398737 0.0082984202 0)
(17.041155 0.0060397843 0)
(14.032268 0.004285466 0)
(11.419504 0.002965927 0)
(9.1874459 0.0019964024 0)
(7.2954372 0.0013009286 0)
(5.6981409 0.00081495163 0)
(4.3530182 0.00048527295 0)
(3.2223146 0.00026963574 0)
(2.2732406 0.00013477229 0)
(1.4776166 5.5851821e-05 0)
(0.81137803 1.5893607e-05 0)
(0.25406548 7.4655048e-07 0)
(29.708494 -0.0066314827 0)
(29.87136 -0.019043163 0)
(30.359865 -0.024154075 0)
(31.317273 -0.01544046 0)
(32.679144 0.00024694962 0)
(34.293589 0.016101105 0)
(35.945371 0.02786216 0)
(37.436784 0.03586789 0)
(38.503304 0.037511464 0)
(39.120461 0.035399606 0)
(39.143496 0.032125904 0)
(38.219445 0.028740726 0)
(36.455953 0.024663195 0)
(34.079539 0.020138583 0)
(31.094103 0.015540439 0)
(27.618028 0.011304311 0)
(23.967142 0.0078228056 0)
(20.381983 0.0051483471 0)
(17.028534 0.0032358028 0)
(14.024362 0.001955126 0)
(11.415859 0.0011464512 0)
(9.1870497 0.00065453649 0)
(7.2971629 0.00036368353 0)
(5.7009986 0.00019599846 0)
(4.356247 0.00010131896 0)
(3.2253866 4.9280969e-05 0)
(2.2758246 2.1860806e-05 0)
(1.4795299 8.2077045e-06 0)
(0.81254128 2.0232748e-06 0)
(0.254466 3.9128964e-07 0)
(29.69701 -0.0068051726 0)
(29.858671 -0.01946865 0)
(30.343524 -0.024582153 0)
(31.296774 -0.015620765 0)
(32.655249 0.00055659084 0)
(34.268092 0.016971199 0)
(35.919449 0.028948883 0)
(37.411775 0.037059644 0)
(38.479779 0.038712526 0)
(39.098106 0.036449585 0)
(39.121982 0.033047224 0)
(38.198232 0.029448578 0)
(36.434366 0.025283712 0)
(34.056454 0.020700181 0)
(31.06907 0.016098174 0)
(27.592377 0.011905034 0)
(23.942557 0.0085174925 0)
(20.35956 0.0059108268 0)
(17.008941 0.0040020396 0)
(14.007786 0.0026575338 0)
(11.402051 0.0017373234 0)
(9.1756495 0.0011152341 0)
(7.2878543 0.00069912731 0)
(5.6935232 0.00042451243 0)
(4.3503861 0.00024661394 0)
(3.2209462 0.00013443007 0)
(2.2726277 6.6261946e-05 0)
(1.4774144 2.7227605e-05 0)
(0.81136065 7.6583921e-06 0)
(0.25408987 5.4432622e-07 0)
(29.68546 -0.0069170044 0)
(29.845941 -0.019687842 0)
(30.327243 -0.024798429 0)
(31.276412 -0.015733865 0)
(32.631519 0.00068779244 0)
(34.242752 0.017411914 0)
(35.893625 0.029499303 0)
(37.386756 0.037693739 0)
(38.456185 0.039379451 0)
(39.075686 0.037073563 0)
(39.100382 0.03355281 0)
(38.176937 0.029866251 0)
(36.412849 0.025590123 0)
(34.033584 0.02091965 0)
(31.044342 0.016250979 0)
(27.567298 0.011992228 0)
(23.918694 0.0085511229 0)
(20.33798 0.0058996849 0)
(16.990383 0.0039587693 0)
(13.99254 0.002597906 0)
(11.389871 0.0016753913 0)
(9.1660864 0.0010602975 0)
(7.2804477 0.00065548401 0)
(5.6878717 0.0003928112 0)
(4.346158 0.00022542183 0)
(3.217873 0.00012138879 0)
(2.2704935 5.9153897e-05 0)
(1.4760458 2.4081833e-05 0)
(0.81061795 6.7218166e-06 0)
(0.2538601 5.2801716e-07 0)
(29.673823 -0.0069923674 0)
(29.833195 -0.019804624 0)
(30.3111 -0.024931352 0)
(31.256299 -0.015835695 0)
(32.608079 0.00072036886 0)
(34.217696 0.017634774 0)
(35.868029 0.029797656 0)
(37.36187 0.038075837 0)
(38.432648 0.039828009 0)
(39.053251 0.037515505 0)
(39.078674 0.033952949 0)
(38.155419 0.030226044 0)
(36.39101 0.025897188 0)
(34.010298 0.021183789 0)
(31.019115 0.016477346 0)
(27.541642 0.012184678 0)
(23.894184 0.0087119773 0)
(20.315698 0.0060311418 0)
(16.971075 0.004063866 0)
(13.976499 0.0026797132 0)
(11.376874 0.0017368296 0)
(9.1557169 0.0011046392 0)
(7.2722829 0.00068614967 0)
(5.6815413 0.00041303821 0)
(4.3413516 0.00023804571 0)
(3.2143331 0.00012877711 0)
(2.2680063 6.3038729e-05 0)
(1.4744344 2.5761183e-05 0)
(0.80973537 7.2182997e-06 0)
(0.25358437 5.4754711e-07 0)
(29.662147 -0.0070450434 0)
(29.820451 -0.019859819 0)
(30.295038 -0.025021266 0)
(31.236308 -0.015939389 0)
(32.584778 0.00069004979 0)
(34.192773 0.01772517 0)
(35.842541 0.029944377 0)
(37.337049 0.038297777 0)
(38.409156 0.040120185 0)
(39.030841 0.037808315 0)
(39.056942 0.034218676 0)
(38.133814 0.030466299 0)
(36.369033 0.026099283 0)
(33.986836 0.021353229 0)
(30.993673 0.016614973 0)
(27.515738 0.012292716 0)
(23.869409 0.0087938242 0)
(20.293153 0.0060906851 0)
(16.951527 0.0041056673 0)
(13.960256 0.0027079103 0)
(11.363718 0.0017553285 0)
(9.1452292 0.0011164903 0)
(7.2640336 0.00069347671 0)
(5.6751527 0.00041737762 0)
(4.3365066 0.00024046808 0)
(3.2107683 0.00012997663 0)
(2.2655042 6.3566492e-05 0)
(1.4728148 2.5964415e-05 0)
(0.80884911 7.2721512e-06 0)
(0.25330779 5.4877501e-07 0)
(29.650448 -0.0070846211 0)
(29.807717 -0.019881357 0)
(30.279042 -0.025093523 0)
(31.216401 -0.016050421 0)
(32.561571 0.00062079068 0)
(34.167941 0.017735952 0)
(35.817128 0.03000066 0)
(37.312276 0.038418294 0)
(38.385703 0.040309624 0)
(39.008457 0.038000497 0)
(39.035196 0.034391935 0)
(38.112142 0.03062438 0)
(36.346943 0.026232056 0)
(33.963223 0.021464253 0)
(30.968049 0.016705993 0)
(27.489626 0.012366303 0)
(23.844412 0.0088504569 0)
(20.270387 0.0061334843 0)
(16.931771 0.0041371148 0)
(13.94382 0.0027304324 0)
(11.350388 0.0017711036 0)
(9.1345881 0.0011272558 0)
(7.2556531 0.00070066397 0)
(5.6686551 0.00042203065 0)
(4.3315737 0.00024336603 0)
(3.2071358 0.00013172061 0)
(2.2629526 6.4510871e-05 0)
(1.4711621 2.6379954e-05 0)
(0.80794427 7.3985421e-06 0)
(0.25302527 5.5735802e-07 0)
(29.638738 -0.007116965 0)
(29.794992 -0.019885267 0)
(30.263096 -0.02515907 0)
(31.196552 -0.016169056 0)
(32.538427 0.00052479889 0)
(34.143167 0.017694843 0)
(35.791762 0.029999662 0)
(37.287531 0.038473119 0)
(38.362278 0.040430679 0)
(38.986092 0.038124197 0)
(39.013438 0.034499296 0)
(38.090419 0.030724313 0)
(36.32477 0.02631314 0)
(33.939503 0.021530729 0)
(30.942299 0.016760332 0)
(27.463375 0.012410159 0)
(23.819271 0.0088845917 0)
(20.24748 0.0061587937 0)
(16.911881 0.0041553104 0)
(13.927264 0.0027434095 0)
(11.336952 0.0017798793 0)
(9.123856 0.0011328262 0)
(7.2471967 0.00070396684 0)
(5.6620959 0.0004238326 0)
(4.3265926 0.0002442252 0)
(3.2034667 0.00013200589 0)
(2.2603747 6.453636e-05 0)
(1.4694921 2.6342663e-05 0)
(0.80702982 7.3793137e-06 0)
(0.2527397 5.5061449e-07 0)
(29.627023 -0.0071454307 0)
(29.782277 -0.019880706 0)
(30.247188 -0.025223987 0)
(31.176745 -0.016294607 0)
(32.515328 0.00041066904 0)
(34.118432 0.017618972 0)
(35.766428 0.029960409 0)
(37.2628 0.038484041 0)
(38.338871 0.040506364 0)
(38.963742 0.038201517 0)
(38.99167 0.034560651 0)
(38.068658 0.030783293 0)
(36.302537 0.026359109 0)
(33.915707 0.02156684 0)
(30.916463 0.016788381 0)
(27.43703 0.012431412 0)
(23.794034 0.0089009827 0)
(20.224483 0.0061711481 0)
(16.891908 0.0041647567 0)
(13.910631 0.0027505191 0)
(11.323446 0.0017851 0)
(9.113063 0.001136569 0)
(7.2386885 0.00070657251 0)
(5.6554941 0.0004255925 0)
(4.3215774 0.00024537837 0)
(3.1997716 0.00013274129 0)
(2.2577781 6.496136e-05 0)
(1.4678097 2.6545898e-05 0)
(0.80610841 7.4490708e-06 0)
(0.25245192 5.5876561e-07 0)
(29.615303 -0.0071714846 0)
(29.769568 -0.01987226 0)
(30.231312 -0.025291056 0)
(31.156969 -0.016426575 0)
(32.492264 0.00028267689 0)
(34.093726 0.017518413 0)
(35.741114 0.029894556 0)
(37.238074 0.038463613 0)
(38.315476 0.040549777 0)
(38.941401 0.038246419 0)
(38.969889 0.034589418 0)
(38.046863 0.030811506 0)
(36.280254 0.026380059 0)
(33.891854 0.021581717 0)
(30.890567 0.016799808 0)
(27.410626 0.012441316 0)
(23.768741 0.0089084783 0)
(20.201435 0.0061774614 0)
(16.87189 0.0041699678 0)
(13.893956 0.002754484 0)
(11.309903 0.0017880711 0)
(9.1022362 0.0011387541 0)
(7.230151 0.0007080695 0)
(5.6488676 0.0004265418 0)
(4.3165422 0.00024592892 0)
(3.1960609 0.00013301768 0)
(2.25517 6.5085734e-05 0)
(1.4661196 2.6592965e-05 0)
(0.80518274 7.4560226e-06 0)
(0.25216279 5.5410595e-07 0)
(29.603582 -0.007195769 0)
(29.756866 -0.019862436 0)
(30.215463 -0.025361544 0)
(31.137221 -0.016564494 0)
(32.469227 0.00014342709 0)
(34.06904 0.0173992 0)
(35.715812 0.029810691 0)
(37.213346 0.038422731 0)
(38.292087 0.040570017 0)
(38.919067 0.038269033 0)
(38.948096 0.034596646 0)
(38.025037 0.030818753 0)
(36.257928 0.026382798 0)
(33.867954 0.021581891 0)
(30.864623 0.016799042 0)
(27.384178 0.012441246 0)
(23.743408 0.0089088931 0)
(20.178351 0.006178102 0)
(16.85184 0.0041707357 0)
(13.877251 0.0027554469 0)
(11.29633 0.0017890068 0)
(9.0913828 0.0011395433 0)
(7.22159 0.00070872719 0)
(5.6422213 0.00042706532 0)
(4.3114909 0.00024632222 0)
(3.1923377 0.00013330526 0)
(2.2525527 6.5267761e-05 0)
(1.4644233 2.6684081e-05 0)
(0.80425355 7.4902207e-06 0)
(0.25187252 5.5958219e-07 0)
(29.591859 -0.0072190693 0)
(29.744171 -0.019852872 0)
(30.19964 -0.025435588 0)
(31.117497 -0.016706434 0)
(32.446215 -3.7196394e-06 0)
(34.044371 0.01726701 0)
(35.690517 0.029715316 0)
(37.18861 0.038365867 0)
(38.268701 0.040570331 0)
(38.896739 0.038274074 0)
(38.926292 0.034589339 0)
(38.003187 0.030812765 0)
(36.235571 0.026373761 0)
(33.84402 0.021571431 0)
(30.838652 0.016788655 0)
(27.357707 0.012431963 0)
(23.718058 0.0089021671 0)
(20.155256 0.0061732724 0)
(16.831783 0.0041676854 0)
(13.86054 0.0027538749 0)
(11.282751 0.0017881289 0)
(9.0805222 0.0011389257 0)
(7.2130223 0.00070824232 0)
(5.6355692 0.0004266778 0)
(4.3064349 0.000246011 0)
(3.1886109 0.00013305252 0)
(2.2499328 6.5089323e-05 0)
(1.4627253 2.6584149e-05 0)
(0.80332337 7.4510764e-06 0)
(0.25158193 5.5060739e-07 0)
(29.580134 -0.0072421779 0)
(29.731483 -0.019844148 0)
(30.18384 -0.025511836 0)
(31.097795 -0.016851381 0)
(32.423224 -0.00015729784 0)
(34.019714 0.017125666 0)
(35.665228 0.029612364 0)
(37.163866 0.038296688 0)
(38.24532 0.040552864 0)
(38.874416 0.038263722 0)
(38.904477 0.034570522 0)
(37.981315 0.030794501 0)
(36.213188 0.026354154 0)
(33.820063 0.021550761 0)
(30.812662 0.01677078 0)
(27.331227 0.012418001 0)
(23.692708 0.0088908575 0)
(20.132168 0.0061653115 0)
(16.811735 0.0041626451 0)
(13.843835 0.0027508215 0)
(11.269175 0.0017864209 0)
(9.0696624 0.0011380666 0)
(7.2044534 0.00070786321 0)
(5.6289146 0.0004265583 0)
(4.301376 0.00024602903 0)
(3.1848814 0.00013313145 0)
(2.2473106 6.5165699e-05 0)
(1.4610256 2.663554e-05 0)
(0.80239227 7.4777938e-06 0)
(0.25129104 5.5716725e-07 0)
(29.568407 -0.007265415 0)
(29.718801 -0.019836056 0)
(30.168062 -0.025590041 0)
(31.078112 -0.016998601 0)
(32.400253 -0.00031509812 0)
(33.995067 0.016976659 0)
(35.63994 0.029503848 0)
(37.139112 0.038218822 0)
(38.22194 0.040520911 0)
(38.852098 0.038241863 0)
(38.882651 0.034546049 0)
(37.959422 0.030769255 0)
(36.19078 0.02632978 0)
(33.796083 0.021527719 0)
(30.786658 0.016750724 0)
(27.304742 0.012402711 0)
(23.667361 0.0088795296 0)
(20.109089 0.0061574751 0)
(16.791699 0.0041574299 0)
(13.827142 0.0027474265 0)
(11.255607 0.0017843424 0)
(9.0588074 0.0011368836 0)
(7.1958873 0.00070718944 0)
(5.6222616 0.00042616708 0)
(4.296318 0.00024579868 0)
(3.1811521 0.00013299686 0)
(2.2446885 6.5097814e-05 0)
(1.4593259 2.6606864e-05 0)
(0.80146106 7.4633431e-06 0)
(0.2510001 5.5141064e-07 0)
(29.556677 -0.0072887721 0)
(29.706122 -0.019828028 0)
(30.152303 -0.025668905 0)
(31.058449 -0.017148085 0)
(32.377301 -0.00047689601 0)
(33.970429 0.016822953 0)
(35.614654 0.029391271 0)
(37.114345 0.038132212 0)
(38.19856 0.040476308 0)
(38.829782 0.038210837 0)
(38.860812 0.034518872 0)
(37.937509 0.030741126 0)
(36.168348 0.026302649 0)
(33.772084 0.021502699 0)
(30.760642 0.016727995 0)
(27.278255 0.012383518 0)
(23.642019 0.0088653405 0)
(20.086022 0.0061470649 0)
(16.771677 0.0041502047 0)
(13.810461 0.0027428474 0)
(11.242049 0.0017814777 0)
(9.0479597 0.0011351209 0)
(7.1873264 0.00070617124 0)
(5.6156124 0.00042561321 0)
(4.2912625 0.00024551989 0)
(3.1774246 0.00013288129 0)
(2.2420675 6.5061757e-05 0)
(1.4576268 2.660089e-05 0)
(0.80053016 7.4674088e-06 0)
(0.25070925 5.5362235e-07 0)
(29.544944 -0.0073123535 0)
(29.693447 -0.019820331 0)
(30.136566 -0.025748347 0)
(31.038803 -0.017298483 0)
(32.354366 -0.00064084155 0)
(33.945798 0.016665454 0)
(35.589369 0.029276407 0)
(37.089564 0.038039889 0)
(38.175179 0.040422223 0)
(38.80747 0.03817168 0)
(38.838962 0.034488283 0)
(37.915578 0.030710201 0)
(36.145898 0.026271848 0)
(33.74807 0.021472844 0)
(30.734621 0.016703326 0)
(27.251774 0.012364465 0)
(23.616691 0.0088504002 0)
(20.062975 0.0061363902 0)
(16.751677 0.0041432215 0)
(13.793799 0.0027385712 0)
(11.228506 0.0017788194 0)
(9.0371239 0.0011333896 0)
(7.1787745 0.00070504026 0)
(5.6089698 0.00042489209 0)
(4.2862119 0.00024506304 0)
(3.1737007 0.0001325941 0)
(2.2394489 6.4897053e-05 0)
(1.4559293 2.6518235e-05 0)
(0.79960007 7.4343862e-06 0)
(0.25041864 5.4568744e-07 0)
(29.533207 -0.0073366037 0)
(29.680776 -0.019813548 0)
(30.120849 -0.025827581 0)
(31.019176 -0.017449013 0)
(32.331449 -0.00080665195 0)
(33.921174 0.016505544 0)
(35.564083 0.029160621 0)
(37.064769 0.037943812 0)
(38.151799 0.040361027 0)
(38.78516 0.038124079 0)
(38.8171 0.034452082 0)
(37.89363 0.030674607 0)
(36.12343 0.026237534 0)
(33.724044 0.021440441 0)
(30.708597 0.016675307 0)
(27.2253 0.012342586 0)
(23.59138 0.0088335345 0)
(20.03995 0.0061243268 0)
(16.7317 0.0041350036 0)
(13.777157 0.0027330953 0)
(11.214977 0.0017753383 0)
(9.0262973 0.0011312582 0)
(7.1702285 0.00070376253 0)
(5.6023308 0.00042415398 0)
(4.2811635 0.00024466926 0)
(3.169978 0.0001323983 0)
(2.236831 6.4805816e-05 0)
(1.4542321 2.6488538e-05 0)
(0.79867016 7.4362197e-06 0)
(0.25012807 5.5064611e-07 0)
(29.521466 -0.0073617095 0)
(29.668106 -0.019807646 0)
(30.10515 -0.025906588 0)
(30.999565 -0.017599464 0)
(32.308548 -0.00097330591 0)
(33.896556 0.016344287 0)
(35.538798 0.029043945 0)
(37.039962 0.037845007 0)
(38.128419 0.040296032 0)
(38.762856 0.038070116 0)
(38.795227 0.034411031 0)
(37.871666 0.030635648 0)
(36.100945 0.026201206 0)
(33.700008 0.021408247 0)
(30.682574 0.016646708 0)
(27.198839 0.01231906 0)
(23.56609 0.0088164852 0)
(20.016952 0.0061122144 0)
(16.711753 0.0041266235 0)
(13.760542 0.0027275408 0)
(11.201472 0.0017718069 0)
(9.0154901 0.0011291208 0)
(7.1616981 0.00070248914 0)
(5.5957042 0.00042341098 0)
(4.2761246 0.00024425541 0)
(3.1662623 0.00013219537 0)
(2.2342181 6.4720756e-05 0)
(1.4525381 2.6456159e-05 0)
(0.79774201 7.4203251e-06 0)
(0.24983804 5.4444709e-07 0)
(29.509721 -0.0073873601 0)
(29.655439 -0.019801807 0)
(30.08947 -0.025984938 0)
(30.979971 -0.017750255 0)
(32.285663 -0.0011414623 0)
(33.871943 0.0161802 0)
(35.513514 0.028925438 0)
(37.015142 0.037746355 0)
(38.105042 0.040229042 0)
(38.740558 0.038013997 0)
(38.773343 0.034367448 0)
(37.849689 0.030594598 0)
(36.078448 0.02616184 0)
(33.675965 0.021371634 0)
(30.656554 0.016616232 0)
(27.172393 0.01229513 0)
(23.540823 0.0087978509 0)
(19.993983 0.0060985924 0)
(16.691835 0.004117428 0)
(13.743952 0.0027217458 0)
(11.187986 0.0017681719 0)
(9.0046972 0.00112687 0)
(7.1531782 0.00070114483 0)
(5.5890852 0.00042262178 0)
(4.271091 0.0002438053 0)
(3.1625503 0.00013194759 0)
(2.2316076 6.4597542e-05 0)
(1.4508457 2.6410672e-05 0)
(0.79681461 7.416804e-06 0)
(0.24954824 5.4868592e-07 0)
(29.497973 -0.0074132074 0)
(29.642772 -0.019795975 0)
(30.073809 -0.026062493 0)
(30.960394 -0.017901201 0)
(32.262794 -0.0013110279 0)
(33.847336 0.016014518 0)
(35.488228 0.028805291 0)
(36.990315 0.03764691 0)
(38.081662 0.040158815 0)
(38.718258 0.037957715 0)
(38.751451 0.034322919 0)
(37.827701 0.03055234 0)
(36.05594 0.026121511 0)
(33.651918 0.021333407 0)
(30.630542 0.016583883 0)
(27.145966 0.01227008 0)
(23.515585 0.0087786224 0)
(19.971049 0.006084998 0)
(16.671951 0.004108479 0)
(13.727391 0.0027161564 0)
(11.174523 0.0017647145 0)
(8.9939213 0.0011247012 0)
(7.1446706 0.00069982552 0)
(5.582475 0.00042186227 0)
(4.2660638 0.0002433821 0)
(3.1588428 0.00013173626 0)
(2.2290001 6.4508084e-05 0)
(1.4491551 2.6371216e-05 0)
(0.79588822 7.3931726e-06 0)
(0.24925875 5.3912975e-07 0)
(29.48622 -0.0074387123 0)
(29.630105 -0.019790537 0)
(30.058166 -0.02613992 0)
(30.940832 -0.018051105 0)
(32.23994 -0.0014812295 0)
(33.822732 0.015846906 0)
(35.462942 0.028684282 0)
(36.965483 0.037546481 0)
(38.058276 0.040086211 0)
(38.695951 0.037900348 0)
(38.72955 0.034276977 0)
(37.805702 0.030507745 0)
(36.033424 0.026079957 0)
(33.62787 0.021295829 0)
(30.604539 0.016550328 0)
(27.119561 0.012242254 0)
(23.490378 0.0087578253 0)
(19.948151 0.0060699435 0)
(16.652104 0.0040978259 0)
(13.710863 0.0027088421 0)
(11.161086 0.0017598951 0)
(8.9831663 0.001121608 0)
(7.1361791 0.00069786309 0)
(5.575877 0.00042064922 0)
(4.2610456 0.00024266371 0)
(3.1551419 0.00013130768 0)
(2.2263972 6.4268969e-05 0)
(1.4474675 2.627062e-05 0)
(0.79496349 7.3768498e-06 0)
(0.24896977 5.4517103e-07 0)
(29.474462 -0.0074632405 0)
(29.617438 -0.019785306 0)
(30.042541 -0.026217466 0)
(30.921287 -0.018200519 0)
(32.217101 -0.0016527865 0)
(33.798131 0.015677564 0)
(35.437653 0.028563066 0)
(36.940647 0.037445667 0)
(38.034884 0.040011762 0)
(38.673636 0.037841289 0)
(38.70764 0.034230818 0)
(37.783691 0.030463398 0)
(36.010896 0.026038967 0)
(33.603817 0.021258911 0)
(30.578544 0.016519369 0)
(27.093178 0.012217904 0)
(23.465204 0.0087393027 0)
(19.925292 0.0060565449 0)
(16.632298 0.0040886643 0)
(13.694371 0.0027028777 0)
(11.14768 0.0017561543 0)
(8.9724369 0.0011193756 0)
(7.1277082 0.00069656313 0)
(5.5692952 0.0004199221 0)
(4.25604 0.00024229107 0)
(3.1514503 0.00013116143 0)
(2.2238009 6.4227488e-05 0)
(1.4457841 2.625787e-05 0)
(0.79404111 7.3649986e-06 0)
(0.24868154 5.3834693e-07 0)
(29.462698 -0.0074865766 0)
(29.604771 -0.019779717 0)
(30.026931 -0.026296019 0)
(30.901757 -0.018350168 0)
(32.194276 -0.0018251275 0)
(33.773534 0.015506594 0)
(35.412363 0.028440971 0)
(36.915808 0.037342757 0)
(38.011486 0.039935505 0)
(38.651313 0.037781037 0)
(38.68572 0.034185435 0)
(37.761668 0.030420646 0)
(35.988357 0.025998405 0)
(33.57976 0.021220523 0)
(30.552555 0.016487067 0)
(27.066812 0.012192595 0)
(23.440054 0.0087193938 0)
(19.902463 0.0060420376 0)
(16.612522 0.0040788968 0)
(13.677905 0.0026966339 0)
(11.134294 0.0017521678 0)
(8.9617204 0.0011168565 0)
(7.1192458 0.00069500534 0)
(5.5627188 0.00041895954 0)
(4.2510375 0.00024170634 0)
(3.1477604 0.00013080653 0)
(2.2212056 6.4030309e-05 0)
(1.4441013 2.6175568e-05 0)
(0.79311893 7.3514462e-06 0)
(0.24839335 5.4225305e-07 0)
(29.450928 -0.0075095459 0)
(29.592107 -0.019774245 0)
(30.01134 -0.026374961 0)
(30.882243 -0.018500803 0)
(32.171465 -0.0019993874 0)
(33.748939 0.015333399 0)
(35.38707 0.028317623 0)
(36.890966 0.037239509 0)
(37.988083 0.039860312 0)
(38.628982 0.037721689 0)
(38.66379 0.034141081 0)
(37.739634 0.030378948 0)
(35.965809 0.025959308 0)
(33.5557 0.021184455 0)
(30.526575 0.016455193 0)
(27.040467 0.012166676 0)
(23.414935 0.0087001741 0)
(19.87967 0.0060284131 0)
(16.592783 0.0040696801 0)
(13.661472 0.0026907185 0)
(11.120935 0.0017484528 0)
(8.9510262 0.0011145328 0)
(7.1108011 0.00069362747 0)
(5.5561563 0.00041820165 0)
(4.2460457 0.00024132176 0)
(3.1440785 0.00013066463 0)
(2.2186159 6.4007887e-05 0)
(1.4424221 2.6176452e-05 0)
(0.79219874 7.3395327e-06 0)
(0.24810578 5.3297203e-07 0)
(29.439152 -0.0075328524 0)
(29.579444 -0.019769701 0)
(29.995769 -0.026454102 0)
(30.862746 -0.01865114 0)
(32.148669 -0.0021745383 0)
(33.724346 0.015158343 0)
(35.361775 0.02819357 0)
(36.866118 0.037135339 0)
(37.964673 0.039785682 0)
(38.606643 0.037662348 0)
(38.64185 0.034095226 0)
(37.71759 0.030335259 0)
(35.94325 0.025918919 0)
(33.531637 0.021148148 0)
(30.500603 0.016423971 0)
(27.014142 0.012141571 0)
(23.389846 0.0086810276 0)
(19.856913 0.006014382 0)
(16.57308 0.0040596347 0)
(13.645072 0.0026837772 0)
(11.107603 0.0017438248 0)
(8.9403544 0.0011115038 0)
(7.1023743 0.00069165145 0)
(5.5496078 0.00041693809 0)
(4.2410647 0.00024052762 0)
(3.1404047 0.0001301446 0)
(2.2160318 6.3696389e-05 0)
(1.4407466 2.6037309e-05 0)
(0.79128058 7.3125516e-06 0)
(0.24781885 5.3875056e-07 0)
(29.427373 -0.007556464 0)
(29.566784 -0.019765994 0)
(29.980216 -0.026532854 0)
(30.843266 -0.01880082 0)
(32.125888 -0.0023504007 0)
(33.699755 0.014982293 0)
(35.336477 0.028069727 0)
(36.841267 0.037030303 0)
(37.941257 0.039710455 0)
(38.584297 0.037602136 0)
(38.619903 0.034047832 0)
(37.695534 0.030290772 0)
(35.920682 0.025877678 0)
(33.507572 0.021110629 0)
(30.474639 0.016393233 0)
(26.987838 0.012118117 0)
(23.364785 0.0086630307 0)
(19.834189 0.0060015282 0)
(16.553411 0.0040511349 0)
(13.628701 0.0026783824 0)
(11.094295 0.0017405034 0)
(8.9297019 0.0011095629 0)
(7.0939624 0.00069055617 0)
(5.5430706 0.0004163634 0)
(4.2360921 0.00024027166 0)
(3.1367369 0.00013008989 0)
(2.213452 6.3715693e-05 0)
(1.4390738 2.6052604e-05 0)
(0.79036387 7.3072149e-06 0)
(0.24753236 5.3165707e-07 0)
(29.41559 -0.0075803589 0)
(29.554125 -0.019762501 0)
(29.96468 -0.026611192 0)
(30.823801 -0.018950434 0)
(32.103121 -0.0025269374 0)
(33.675166 0.01480473 0)
(35.311178 0.027946209 0)
(36.816412 0.036925659 0)
(37.917836 0.039635195 0)
(38.561944 0.037541155 0)
(38.597948 0.034000063 0)
(37.673471 0.030246876 0)
(35.898107 0.025836279 0)
(33.483506 0.02107156 0)
(30.448685 0.01635868 0)
(26.961554 0.012089891 0)
(23.339753 0.0086414863 0)
(19.811498 0.0059858924 0)
(16.533774 0.0040404761 0)
(13.612357 0.0026714262 0)
(11.081008 0.0017359762 0)
(8.9190631 0.0011066401 0)
(7.0855598 0.00068868931 0)
(5.5365397 0.00041516731 0)
(4.2311237 0.00023952163 0)
(3.1330718 0.00012961202 0)
(2.2108739 6.3434264e-05 0)
(1.437402 2.5927651e-05 0)
(0.78944771 7.282549e-06 0)
(0.24724604 5.3610443e-07 0)
(29.403803 -0.0076044244 0)
(29.541467 -0.019758676 0)
(29.949162 -0.026688906 0)
(30.804352 -0.01910026 0)
(32.080368 -0.0027042333 0)
(33.650579 0.014625803 0)
(35.285876 0.027821851 0)
(36.791555 0.036819513 0)
(37.894412 0.039559854 0)
(38.539586 0.037479565 0)
(38.575986 0.033952092 0)
(37.6514 0.030202883 0)
(35.875526 0.025795392 0)
(33.459442 0.021034375 0)
(30.422746 0.016326362 0)
(26.935299 0.012063636 0)
(23.314759 0.0086218681 0)
(19.788853 0.0059720226 0)
(16.514183 0.0040310213 0)
(13.596055 0.0026653839 0)
(11.067755 0.0017322633 0)
(8.9084528 0.0011044034 0)
(7.0771802 0.000687442 0)
(5.5300269 0.00041453767 0)
(4.2261691 0.00023925195 0)
(3.1294171 0.0001295787 0)
(2.2083031 6.3492677e-05 0)
(1.435735 2.5971723e-05 0)
(0.78853416 7.2825288e-06 0)
(0.24696053 5.2673192e-07 0)
(29.392011 -0.0076286656 0)
(29.528811 -0.019754797 0)
(29.933663 -0.026765694 0)
(30.784921 -0.019250117 0)
(32.05763 -0.0028825861 0)
(33.625994 0.014445522 0)
(35.260572 0.02769703 0)
(36.766694 0.036713367 0)
(37.870982 0.039485455 0)
(38.517222 0.037418414 0)
(38.554016 0.033904137 0)
(37.62932 0.030158166 0)
(35.852937 0.025753938 0)
(33.435376 0.020997002 0)
(30.396816 0.016295531 0)
(26.909066 0.012039863 0)
(23.289797 0.0086033259 0)
(19.766243 0.0059582943 0)
(16.494628 0.0040212571 0)
(13.579783 0.0026586806 0)
(11.054528 0.0017277874 0)
(8.8978629 0.0011014545 0)
(7.0688163 0.0006854924 0)
(5.523526 0.00041326537 0)
(4.2212234 0.00023842291 0)
(3.1257687 0.00012900912 0)
(2.2057366 6.3141202e-05 0)
(1.4340708 2.581203e-05 0)
(0.78762212 7.2504899e-06 0)
(0.2466755 5.3257029e-07 0)
(29.380215 -0.0076532285 0)
(29.516156 -0.019751362 0)
(29.918184 -0.026841572 0)
(30.765506 -0.019398525 0)
(32.034906 -0.0030609378 0)
(33.601409 0.014263905 0)
(35.235264 0.027572339 0)
(36.741828 0.036606734 0)
(37.847546 0.039410847 0)
(38.494851 0.037357655 0)
(38.532038 0.03385728 0)
(37.60723 0.030114918 0)
(35.83034 0.025714134 0)
(33.411309 0.020960052 0)
(30.370895 0.016263503 0)
(26.882853 0.012014332 0)
(23.264863 0.0085840436 0)
(19.743667 0.0059445908 0)
(16.475108 0.0040122605 0)
(13.563543 0.002652954 0)
(11.041326 0.0017242318 0)
(8.8872924 0.0010993527 0)
(7.0604672 0.00068430473 0)
(5.5170363 0.00041265654 0)
(4.2162861 0.00023816029 0)
(3.1221264 0.00012896279 0)
(2.2031745 6.3174867e-05 0)
(1.4324093 2.5836295e-05 0)
(0.78671156 7.2468112e-06 0)
(0.24639092 5.2503836e-07 0)
(29.368414 -0.0076781751 0)
(29.503502 -0.019748254 0)
(29.902721 -0.02691601 0)
(30.746106 -0.019546045 0)
(32.012196 -0.0032398624 0)
(33.576825 0.01408204 0)
(35.209955 0.027448335 0)
(36.71696 0.036499207 0)
(37.824107 0.039334805 0)
(38.472474 0.037296136 0)
(38.510054 0.033811209 0)
(37.585133 0.030072122 0)
(35.807737 0.025674343 0)
(33.387243 0.020922487 0)
(30.344987 0.016229761 0)
(26.856664 0.011985809 0)
(23.239963 0.0085621395 0)
(19.72113 0.0059286578 0)
(16.455625 0.0040012205 0)
(13.547334 0.0026456473 0)
(11.028149 0.0017194407 0)
(8.8767406 0.0010962396 0)
(7.0521319 0.00068229492 0)
(5.5105565 0.00041135893 0)
(4.2113558 0.00023734534 0)
(3.1184891 0.00012843822 0)
(2.2006156 6.2861047e-05 0)
(1.4307498 2.5693391e-05 0)
(0.78580213 7.2156795e-06 0)
(0.2461067 5.2889868e-07 0)
(29.356609 -0.0077032146 0)
(29.490848 -0.019744754 0)
(29.887274 -0.026989482 0)
(30.726722 -0.019693234 0)
(31.9895 -0.0034195166 0)
(33.552242 0.013898033 0)
(35.184642 0.027323975 0)
(36.692089 0.036391605 0)
(37.800663 0.039258908 0)
(38.45009 0.037234327 0)
(38.488063 0.033765939 0)
(37.563028 0.030029941 0)
(35.785126 0.025635538 0)
(33.363176 0.020887109 0)
(30.31909 0.016200798 0)
(26.830502 0.011963935 0)
(23.215099 0.0085454839 0)
(19.698635 0.0059167243 0)
(16.436186 0.0039930651 0)
(13.531165 0.0026405323 0)
(11.015006 0.0017164252 0)
(8.8662172 0.0010945359 0)
(7.0438195 0.00068145897 0)
(5.5040948 0.00041104052 0)
(4.2064394 0.00023731308 0)
(3.1148619 0.00012858854 0)
(2.1980639 6.3040533e-05 0)
(1.4290951 2.5797369e-05 0)
(0.78489526 7.2308325e-06 0)
(0.24582327 5.1908919e-07 0)
(29.344798 -0.007727785 0)
(29.478192 -0.019740894 0)
(29.871846 -0.027062326 0)
(30.707355 -0.019840662 0)
(31.966818 -0.0036004707 0)
(33.527658 0.01371303 0)
(35.159327 0.027199 0)
(36.667215 0.03628272 0)
(37.777214 0.039183859 0)
(38.4277 0.037172781 0)
(38.466063 0.033720829 0)
(37.540912 0.029988688 0)
(35.762505 0.02559772 0)
(33.339105 0.020852859 0)
(30.293198 0.016171564 0)
(26.804355 0.011940835 0)
(23.190259 0.0085276045 0)
(19.676169 0.0059034926 0)
(16.416776 0.0039836625 0)
(13.515022 0.0026340022 0)
(11.001883 0.0017119669 0)
(8.855709 0.0010915287 0)
(7.0355185 0.0006794093 0)
(5.4976416 0.00040963606 0)
(4.2015292 0.00023635041 0)
(3.1112393 0.00012789861 0)
(2.1955153 6.2600328e-05 0)
(1.4274423 2.5593182e-05 0)
(0.78398944 7.1895374e-06 0)
(0.24554017 5.2635425e-07 0)
(29.332983 -0.0077515116 0)
(29.465536 -0.019737456 0)
(29.856436 -0.027135349 0)
(30.688004 -0.019987225 0)
(31.944149 -0.003782378 0)
(33.503074 0.013526251 0)
(35.134009 0.027074271 0)
(36.642337 0.036174077 0)
(37.75376 0.039110036 0)
(38.405303 0.037112058 0)
(38.444056 0.033676211 0)
(37.518789 0.029949141 0)
(35.739877 0.025561386 0)
(33.315034 0.020818924 0)
(30.267316 0.016140766 0)
(26.778228 0.011914872 0)
(23.165447 0.0085081675 0)
(19.653737 0.0058897702 0)
(16.397402 0.003974647 0)
(13.49891 0.002628221 0)
(10.988787 0.0017083306 0)
(8.8452228 0.0010893457 0)
(7.0272352 0.00067817636 0)
(5.4912024 0.00040902894 0)
(4.1966297 0.00023610743 0)
(3.1076246 0.00012789212 0)
(2.1929724 6.2676243e-05 0)
(1.4257932 2.5640723e-05 0)
(0.78308564 7.1908616e-06 0)
(0.2452577 5.1773595e-07 0)
(29.321162 -0.0077742727 0)
(29.45288 -0.019734817 0)
(29.841042 -0.027208927 0)
(30.668669 -0.020132535 0)
(31.921495 -0.0039647835 0)
(33.47849 0.013338307 0)
(35.108688 0.026950097 0)
(36.617456 0.036064634 0)
(37.730302 0.0390353 0)
(38.3829 0.037049989 0)
(38.422042 0.033629797 0)
(37.496658 0.029907232 0)
(35.717242 0.025522186 0)
(33.290961 0.02078152 0)
(30.241444 0.016109028 0)
(26.752124 0.01188983 0)
(23.140666 0.0084884702 0)
(19.631341 0.0058752126 0)
(16.378061 0.0039644244 0)
(13.482827 0.0026214023 0)
(10.975714 0.0017038152 0)
(8.8347537 0.0010863492 0)
(7.0189644 0.00067616365 0)
(5.484772 0.00040766831 0)
(4.1917366 0.00023520246 0)
(3.1040143 0.00012725018 0)
(2.1904324 6.226472e-05 0)
(1.4241459 2.54482e-05 0)
(0.78218277 7.149804e-06 0)
(0.24497551 5.2387224e-07 0)
(29.309337 -0.0077961963 0)
(29.440225 -0.019732078 0)
(29.825664 -0.027282992 0)
(30.64935 -0.020278165 0)
(31.898855 -0.004148166 0)
(33.453905 0.013149301 0)
(35.083365 0.026826314 0)