/*--------------------------------*- C++ -*----------------------------------*\
| =========                 |                                                 |
| \\      /  F ield         | OpenFOAM: The Open Source CFD Toolbox           |
|  \\    /   O peration     | Version:  v2012                                 |
|   \\  /    A nd           | Website:  www.openfoam.com                      |
|    \\/     M anipulation  |                                                 |
\*---------------------------------------------------------------------------*/
FoamFile
{
    version     2.0;
    format      ascii;
    class       volScalarField;
    location    "100";
    object      alphat;
}
// * * * * * * * * * * * * * * * * * * * * * * * * * * * * * * * * * * * * * //

dimensions      [1 -1 -1 0 0 0 0];


internalField   nonuniform List<scalar> 
24000
(
0.0011458401
0.00021072621
0.0008993086
0.0010653816
0.0012099382
0.00044372493
0.00014643229
0.00010817824
7.9785968e-05
5.3305738e-05
3.4390013e-05
2.325105e-05
1.8364944e-05
1.4633036e-05
1.0809403e-05
7.5210721e-06
4.9657217e-06
2.7592091e-06
1.5352572e-06
8.3524363e-07
4.2674416e-07
1.6634082e-07
5.1523632e-08
1.3019184e-08
2.7057427e-09
4.5175482e-10
5.6736569e-11
5.8399308e-12
2.0305051e-12
2.1574972e-12
0.0011458731
0.00021200067
0.0010868619
0.0012584777
0.0012086045
0.0003064677
0.00013753362
9.8088299e-05
7.447176e-05
5.0195347e-05
3.4246918e-05
2.3158607e-05
1.8292205e-05
1.4597824e-05
1.0819314e-05
7.5530776e-06
5.0878078e-06
2.864016e-06
1.59857e-06
8.7274968e-07
4.4453543e-07
1.7001974e-07
5.2546243e-08
1.3288168e-08
2.7690247e-09
4.641252e-10
5.9083846e-11
6.8053946e-12
2.9480319e-12
3.1544091e-12
0.0011459242
0.00021581465
0.0010874884
0.0012893348
0.0012061171
0.00045581859
0.00014650162
0.0001031355
7.886845e-05
5.2958993e-05
3.4235641e-05
2.3147552e-05
1.8292546e-05
1.4627102e-05
1.08661e-05
7.6099409e-06
5.1525702e-06
2.8803652e-06
1.6121639e-06
8.8353271e-07
4.5427121e-07
1.7811223e-07
5.5434137e-08
1.4048186e-08
2.9249556e-09
4.8908037e-10
6.1794667e-11
6.7506075e-12
2.6673971e-12
2.8610704e-12
0.0011462242
0.00021784237
0.0010879397
0.0012893867
0.0012050338
0.00048896828
0.00014817651
0.00010372882
7.9076454e-05
5.2864423e-05
3.4220411e-05
2.3131399e-05
1.8276133e-05
1.4607753e-05
1.0856606e-05
7.6034577e-06
5.147374e-06
2.8878335e-06
1.6138407e-06
8.8282582e-07
4.52945e-07
1.7654925e-07
5.4808352e-08
1.3871181e-08
2.8868403e-09
4.8277329e-10
6.1079435e-11
6.7494705e-12
2.7255229e-12
2.9257609e-12
0.0011465453
0.00021965374
0.0010883455
0.0012894477
0.0012042033
0.00051846697
0.00014916397
0.00010415656
7.9348867e-05
5.2977379e-05
3.4205097e-05
2.311282e-05
1.8259038e-05
1.4593261e-05
1.0846033e-05
7.5975272e-06
5.144902e-06
2.8856331e-06
1.6129149e-06
8.8255086e-07
4.5295859e-07
1.7679073e-07
5.4907448e-08
1.3898918e-08
2.8926808e-09
4.8371619e-10
6.1178816e-11
6.7427579e-12
2.7097794e-12
2.9087597e-12
0.0011468792
0.00022089355
0.001088716
0.0012894986
0.0012035331
0.00054257207
0.00014970713
0.00010421595
7.9413791e-05
5.3026907e-05
3.4192339e-05
2.3095487e-05
1.8242842e-05
1.4579031e-05
1.0834614e-05
7.5900717e-06
5.1403392e-06
2.8833231e-06
1.6115904e-06
8.8176275e-07
4.5249396e-07
1.7651156e-07
5.4809338e-08
1.3872584e-08
2.8870978e-09
4.8278421e-10
6.1063953e-11
6.7326795e-12
2.7077232e-12
2.9066897e-12
0.0011472213
0.00022180366
0.0010890609
0.0012895403
0.0012029713
0.00056320692
0.00015023013
0.00010429813
7.9518312e-05
5.3120953e-05
3.4182467e-05
2.3080056e-05
1.8228321e-05
1.4566233e-05
1.0824245e-05
7.583349e-06
5.1362934e-06
2.8805461e-06
1.6101897e-06
8.810268e-07
4.5210469e-07
1.7630051e-07
5.4738412e-08
1.3854112e-08
2.8832547e-09
4.8214846e-10
6.0983657e-11
6.7228234e-12
2.7029444e-12
2.9015641e-12
0.0011475705
0.00022247965
0.0010893866
0.0012895751
0.0012024837
0.00058150377
0.00015074795
0.00010441465
7.9651327e-05
5.3234975e-05
3.417574e-05
2.3066699e-05
1.8215364e-05
1.4554777e-05
1.0814904e-05
7.5773215e-06
5.1327099e-06
2.8780037e-06
1.6089543e-06
8.8038736e-07
4.5175821e-07
1.7608644e-07
5.4664081e-08
1.3834481e-08
2.879163e-09
4.8147576e-10
6.0900623e-11
6.714027e-12
2.6995151e-12
2.897849e-12
0.0011479256
0.00022301025
0.0010896981
0.0012896056
0.0012020585
0.00059823775
0.00015127684
0.00010456859
7.9812508e-05
5.3365373e-05
3.4171916e-05
2.3055266e-05
1.8203829e-05
1.4544557e-05
1.0806577e-05
7.5720336e-06
5.1296532e-06
2.875734e-06
1.6079266e-06
8.7988888e-07
4.5149479e-07
1.7590619e-07
5.46011e-08
1.3817934e-08
2.8757552e-09
4.8092372e-10
6.0833639e-11
6.7071193e-12
2.6968503e-12
2.8949136e-12
0.001148286
0.00022344529
0.0010899987
0.0012896339
0.001201696
0.00061352782
0.00015181014
0.00010475158
7.9990989e-05
5.3505489e-05
3.4170654e-05
2.3045534e-05
1.8193538e-05
1.4535422e-05
1.0799139e-05
7.5673852e-06
5.127051e-06
2.873744e-06
1.6070952e-06
8.7952082e-07
4.5130863e-07
1.7575769e-07
5.454853e-08
1.3804143e-08
2.8729483e-09
4.8047705e-10
6.0780764e-11
6.7020259e-12
2.6950375e-12
2.892861e-12
0.0011486512
0.00022381962
0.0010902913
0.0012896612
0.0012013973
0.00062723843
0.00015234822
0.00010495951
8.0177755e-05
5.3651999e-05
3.4171515e-05
2.3037418e-05
1.8184379e-05
1.4527187e-05
1.0792433e-05
7.5632592e-06
5.1248166e-06
2.8719826e-06
1.6064212e-06
8.7926013e-07
4.5119061e-07
1.7564209e-07
5.4507507e-08
1.3793513e-08
2.8708352e-09
4.8015118e-10
6.0743633e-11
6.6986217e-12
2.6938119e-12
2.8914118e-12
0.0011490209
0.00022415523
0.0010905781
0.0012896881
0.0012011565
0.00063927898
0.00015289582
0.0001051892
8.0369388e-05
5.3803124e-05
3.4174387e-05
2.3030691e-05
1.8176092e-05
1.4519655e-05
1.0786299e-05
7.559527e-06
5.122848e-06
2.8703786e-06
1.6058462e-06
8.7906486e-07
4.5111397e-07
1.7554942e-07
5.4474677e-08
1.3785104e-08
2.8692e-09
4.7990699e-10
6.0716878e-11
6.6961992e-12
2.6928269e-12
2.8902013e-12
0.0011493948
0.00022446369
0.0010908605
0.0012897146
0.0012009581
0.00064982974
0.00015343895
0.00010543219
8.0581958e-05
5.3956779e-05
3.4178846e-05
2.3025013e-05
1.8168474e-05
1.4512679e-05
1.0780611e-05
7.5560889e-06
5.1210642e-06
2.8688858e-06
1.6053302e-06
8.7890296e-07
4.5105808e-07
1.7547048e-07
5.4447041e-08
1.3778163e-08
2.8678846e-09
4.7971734e-10
6.069693e-11
6.694302e-12
2.6918709e-12
2.8890142e-12
0.0011497727
0.0002247517
0.0010911402
0.0012897409
0.0012007905
0.00065902801
0.00015396718
0.00010568701
8.0791939e-05
5.4110941e-05
3.418452e-05
2.3020123e-05
1.8161374e-05
1.4506141e-05
1.0775269e-05
7.5528613e-06
5.1193914e-06
2.8674509e-06
1.6048291e-06
8.7874039e-07
4.5099941e-07
1.75392e-07
5.4419642e-08
1.3771252e-08
2.86657e-09
4.7952733e-10
6.0676882e-11
6.6923279e-12
2.6908287e-12
2.8877345e-12
0.0011501544
0.00022502429
0.0010914182
0.0012897676
0.0012006515
0.00066683073
0.00015447842
0.00010595276
8.100035e-05
5.4265035e-05
3.41911e-05
2.3015817e-05
1.815467e-05
1.4499935e-05
1.0770181e-05
7.549769e-06
5.1177682e-06
2.8660506e-06
1.6043314e-06
8.785735e-07
4.5093611e-07
1.7531182e-07
5.4391784e-08
1.3764272e-08
2.8652496e-09
4.793375e-10
6.0657031e-11
6.6904534e-12
2.6898787e-12
2.8865545e-12
0.0011505399
0.00022528502
0.0010916955
0.0012897953
0.0012005393
0.00067315867
0.00015497372
0.00010622826
8.12114e-05
5.4418348e-05
3.4198351e-05
2.3011942e-05
1.8148266e-05
1.4493985e-05
1.0765282e-05
7.5467697e-06
5.1161656e-06
2.8646711e-06
1.6038346e-06
8.7840403e-07
4.5087069e-07
1.7523014e-07
5.4363466e-08
1.3757195e-08
2.8639135e-09
4.7914586e-10
6.0637213e-11
6.6887873e-12
2.6891566e-12
2.8856155e-12
0.0011509289
0.00022553634
0.0010919725
0.0012898245
0.0012004527
0.00067803057
0.00015545617
0.00010651436
8.142498e-05
5.4570722e-05
3.4206053e-05
2.30084e-05
1.8142107e-05
1.4488248e-05
1.0760557e-05
7.5438642e-06
5.1145925e-06
2.8633294e-06
1.6033526e-06
8.7824205e-07
4.5080943e-07
1.7515102e-07
5.4336325e-08
1.3750504e-08
2.862671e-09
4.7897137e-10
6.0619762e-11
6.6874656e-12
2.688629e-12
2.8848845e-12
0.0011513214
0.0002257802
0.0010922497
0.0012898561
0.0012003878
0.00068155676
0.00015592985
0.00010681175
8.164132e-05
5.4722268e-05
3.4214106e-05
2.3005141e-05
1.8136172e-05
1.4482704e-05
1.0755999e-05
7.5410549e-06
5.1130532e-06
2.8620075e-06
1.6028704e-06
8.7807522e-07
4.5074415e-07
1.7506998e-07
5.4308464e-08
1.3743588e-08
2.8613769e-09
4.787881e-10
6.0601317e-11
6.6861379e-12
2.6881708e-12
2.8842289e-12
0.0011517173
0.00022601793
0.0010925273
0.0012898909
0.0012003406
0.00068386256
0.00015639857
0.00010712168
8.1861531e-05
5.4873297e-05
3.4222418e-05
2.3002098e-05
1.8130429e-05
1.4477324e-05
1.0751593e-05
7.5383376e-06
5.1115455e-06
2.8607046e-06
1.6023905e-06
8.7790766e-07
4.5067863e-07
1.7498958e-07
5.4281046e-08
1.3736849e-08
2.8601288e-09
4.7861335e-10
6.0584006e-11
6.6849525e-12
2.6877848e-12
2.8836515e-12
0.0011521167
0.00022624968
0.0010928051
0.0012899296
0.0012003063
0.00068511968
0.00015686483
0.00010744667
8.2086312e-05
5.5024402e-05
3.4230883e-05
2.2999233e-05
1.8124854e-05
1.4472087e-05
1.0747331e-05
7.5357113e-06
5.1100717e-06
2.859413e-06
1.6019067e-06
8.7773369e-07
4.5060856e-07
1.749078e-07
5.4253181e-08
1.3729981e-08
2.8588488e-09
4.7843258e-10
6.0565906e-11
6.6837027e-12
2.6873899e-12
2.8830638e-12
0.0011525193
0.00022647467
0.0010930828
0.0012899733
0.0012002808
0.00068553586
0.00015733091
0.00010777893
8.2314954e-05
5.5175892e-05
3.4239465e-05
2.2996518e-05
1.811943e-05
1.446699e-05
1.0743205e-05
7.5331725e-06
5.10863e-06
2.8581428e-06
1.6014252e-06
8.7755739e-07
4.5053651e-07
1.7482584e-07
5.4225459e-08
1.3723206e-08
2.8575963e-09
4.782571e-10
6.054847e-11
6.6825035e-12
2.6870029e-12
2.8824869e-12
0.0011529253
0.0002266912
0.00109336
0.0012900225
0.0012002599
0.000685318
0.00015779833
0.00010811815
8.2546489e-05
5.5328057e-05
3.4248172e-05
2.2993923e-05
1.8114138e-05
1.4462044e-05
1.0739207e-05
7.5307113e-06
5.1072128e-06
2.8568784e-06
1.6009339e-06
8.7736862e-07
4.5045495e-07
1.7473842e-07
5.4195684e-08
1.3715821e-08
2.8562056e-09
4.780577e-10
6.0528119e-11
6.6811039e-12
2.6866211e-12
2.8819177e-12
0.0011533345
0.00022689683
0.0010936364
0.0012900779
0.0012002399
0.0006846889
0.0001582683
0.00010846338
8.2780088e-05
5.548102e-05
3.4256965e-05
2.2991422e-05
1.8108967e-05
1.4457244e-05
1.0735339e-05
7.5283365e-06
5.1058318e-06
2.8556324e-06
1.6004453e-06
8.7717854e-07
4.5037198e-07
1.7465054e-07
5.4165922e-08
1.3708495e-08
2.8548354e-09
4.7786244e-10
6.0508303e-11
6.6797652e-12
2.6862703e-12
2.8813831e-12
0.001153747
0.00022708944
0.0010939119
0.0012901395
0.0012002173
0.00068387308
0.00015874243
0.0001088133
8.3015136e-05
5.5634989e-05
3.4265837e-05
2.2988993e-05
1.8103908e-05
1.4452584e-05
1.0731596e-05
7.5260477e-06
5.1044889e-06
2.8544009e-06
1.5999564e-06
8.7698364e-07
4.5028462e-07
1.7456053e-07
5.4135378e-08
1.3700942e-08
2.8534123e-09
4.7765773e-10
6.0487288e-11
6.6783402e-12
2.6859186e-12
2.8808464e-12
0.0011541628
0.00022726827
0.0010941867
0.0012902067
0.0012001891
0.00068305812
0.00015922191
0.00010916625
8.3251224e-05
5.5790156e-05
3.4274784e-05
2.2986618e-05
1.8098938e-05
1.4448061e-05
1.0727978e-05
7.5238486e-06
5.1031892e-06
2.8532037e-06
1.5994796e-06
8.7679249e-07
4.5019819e-07
1.74471e-07
5.4105193e-08
1.3693538e-08
2.8520281e-09
4.7746021e-10
6.0467208e-11
6.6770146e-12
2.6856078e-12
2.8803551e-12
0.0011545818
0.00022743342
0.0010944614
0.0012902781
0.0012001529
0.000682417
0.00015970812
0.00010952092
8.3488108e-05
5.5946815e-05
3.4283799e-05
2.2984286e-05
1.8094068e-05
1.4443667e-05
1.0724481e-05
7.5217342e-06
5.1019298e-06
2.8520245e-06
1.5990028e-06
8.7659397e-07
4.5010436e-07
1.7437655e-07
5.4073038e-08
1.368553e-08
2.8505055e-09
4.7723873e-10
6.0444201e-11
6.6754798e-12
2.6852926e-12
2.8798615e-12
0.0011550041
0.00022758486
0.0010947368
0.0012903518
0.0012001076
0.00068210457
0.0001602029
0.00010987622
8.3725407e-05
5.6105321e-05
3.4292881e-05
2.2981989e-05
1.8089285e-05
1.4439404e-05
1.0721106e-05
7.5197142e-06
5.1007225e-06
2.8508769e-06
1.5985396e-06
8.7640081e-07
4.5001223e-07
1.7428249e-07
5.404113e-08
1.3677641e-08
2.8490159e-09
4.7702332e-10
6.0421943e-11
6.6740136e-12
2.6850012e-12
2.8793948e-12
0.0011554298
0.00022772328
0.0010950134
0.0012904259
0.0012000521
0.00068221948
0.00016070777
0.00011023189
8.3962671e-05
5.6265661e-05
3.4302028e-05
2.2979726e-05
1.8084586e-05
1.4435269e-05
1.0717852e-05
7.5177865e-06
5.0995671e-06
2.8497556e-06
1.5980869e-06
8.7620976e-07
4.4991887e-07
1.7418691e-07
5.4008513e-08
1.3669526e-08
2.8474716e-09
4.7679794e-10
6.0398412e-11
6.6724532e-12
2.6847053e-12
2.8789218e-12
0.0011558587
0.00022784953
0.0010952917
0.0012904996
0.0011999861
0.00068283503
0.00016122284
0.00011058735
8.4200339e-05
5.6428046e-05
3.4311256e-05
2.2977509e-05
1.8079969e-05
1.4431259e-05
1.0714719e-05
7.5159537e-06
5.0984673e-06
2.8486793e-06
1.5976586e-06
8.76032e-07
4.4983194e-07
1.7409343e-07
5.3976712e-08
1.3661674e-08
2.8459898e-09
4.7658367e-10
6.03763e-11
6.6710582e-12
2.6844874e-12
2.8785332e-12
0.0011562906
0.00022796416
0.0010955717
0.0012905712
0.0011999092
0.00068400007
0.00016174762
0.0001109417
8.4439132e-05
5.659297e-05
3.4320566e-05
2.297534e-05
1.8075415e-05
1.4427364e-05
1.0711695e-05
7.5142056e-06
5.0974157e-06
2.8476296e-06
1.5972411e-06
8.7585661e-07
4.4974397e-07
1.7399732e-07
5.3943617e-08
1.3653386e-08
2.8444053e-09
4.763515e-10
6.0352066e-11
6.6695706e-12
2.68433e-12
2.8782087e-12
0.0011567261
0.00022806807
0.0010958545
0.0012906399
0.001199823
0.00068570862
0.00016228348
0.0001112951
8.4678756e-05
5.6760429e-05
3.4329944e-05
2.2973216e-05
1.8070949e-05
1.4423598e-05
1.0708795e-05
7.5125581e-06
5.0964267e-06
2.8466118e-06
1.5968435e-06
8.7569352e-07
4.49663e-07
1.7390413e-07
5.3911599e-08
1.364543e-08
2.8428979e-09
4.7613276e-10
6.0329466e-11
6.6682149e-12
2.6841954e-12
2.8779081e-12
0.0011571648
0.00022816266
0.0010961399
0.0012907048
0.0011997281
0.00068791144
0.00016283237
0.0001116485
8.4918944e-05
5.6930457e-05
3.4339399e-05
2.2971149e-05
1.806656e-05
1.4419949e-05
1.0706006e-05
7.5109962e-06
5.0954881e-06
2.8456143e-06
1.5964555e-06
8.7553456e-07
4.495832e-07
1.7381072e-07
5.3879289e-08
1.3637351e-08
2.8413575e-09
4.7590777e-10
6.0306052e-11
6.6667847e-12
2.68404e-12
2.8775821e-12
0.0011576069
0.00022824938
0.0010964281
0.0012907658
0.0011996254
0.00069053066
0.00016339408
0.00011200217
8.5159869e-05
5.7102903e-05
3.4348949e-05
2.2969126e-05
1.8062242e-05
1.4416411e-05
1.0703324e-05
7.50952e-06
5.0946019e-06
2.8446545e-06
1.5960902e-06
8.7538943e-07
4.4951127e-07
1.7372038e-07
5.3848133e-08
1.3629619e-08
2.8398977e-09
4.75697e-10
6.0284441e-11
6.6655269e-12
2.6839375e-12
2.8773126e-12
0.0011580522
0.00022832794
0.0010967188
0.0012908225
0.0011995154
0.00069353543
0.00016396802
0.0001123565
8.5401665e-05
5.7277577e-05
3.4358561e-05
2.2967127e-05
1.8057992e-05
1.4412982e-05
1.0700744e-05
7.5081222e-06
5.093761e-06
2.8437096e-06
1.5957272e-06
8.7524187e-07
4.494358e-07
1.7362648e-07
5.3815312e-08
1.3621326e-08
2.8383041e-09
4.7546282e-10
6.0259975e-11
6.6640608e-12
2.6838219e-12
2.8770298e-12
0.0011585008
0.00022839955
0.001097012
0.0012908748
0.0011993986
0.00069692238
0.0001645553
0.00011271234
8.5645091e-05
5.7455015e-05
3.436825e-05
2.2965151e-05
1.8053803e-05
1.440966e-05
1.069827e-05
7.506812e-06
5.092595e-06
2.8427888e-06
1.5953796e-06
8.7510414e-07
4.4936651e-07
1.7353544e-07
5.3783576e-08
1.3613371e-08
2.8367901e-09
4.752425e-10
6.0237182e-11
6.6627024e-12
2.6836995e-12
2.8767394e-12
0.0011589527
0.00022846631
0.0010973074
0.0012909227
0.0011992755
0.00070063153
0.00016515586
0.00011307023
8.5890571e-05
5.7635306e-05
3.4378016e-05
2.296319e-05
1.8049663e-05
1.4406433e-05
1.0695892e-05
7.5055798e-06
5.0901618e-06
2.8418785e-06
1.5950357e-06
8.7496662e-07
4.4929627e-07
1.7344358e-07
5.3751341e-08
1.3605224e-08
2.8352241e-09
4.7501223e-10
6.0213043e-11
6.6611875e-12
2.6835051e-12
2.8763686e-12
0.0011594079
0.00022852784
0.0010976051
0.0012909659
0.0011991462
0.00070462173
0.00016576807
0.00011343015
8.613787e-05
5.7817922e-05
3.4387843e-05
2.2961227e-05
1.8045557e-05
1.4403286e-05
1.0693602e-05
7.5044212e-06
5.0877893e-06
2.8409998e-06
1.5947091e-06
8.748396e-07
4.4923216e-07
1.7335457e-07
5.3720308e-08
1.3597469e-08
2.833752e-09
4.7479858e-10
6.0190948e-11
6.6598122e-12
2.6833106e-12
2.875999e-12
0.0011598665
0.0002285835
0.0010979047
0.0012910042
0.0011990109
0.00070889997
0.00016639145
0.00011379262
8.6387148e-05
5.8002692e-05
3.4397737e-05
2.2959239e-05
1.8041467e-05
1.4400195e-05
1.0691384e-05
7.5033211e-06
5.0854411e-06
2.8401234e-06
1.5943762e-06
8.7470325e-07
4.4916003e-07
1.7325971e-07
5.368674e-08
1.3588897e-08
2.8320879e-09
4.7455143e-10
6.0164733e-11
6.6581175e-12
2.6830782e-12
2.8755899e-12
0.0011603286
0.00022863428
0.0010982061
0.0012910374
0.0011988695
0.00071348726
0.00016702692
0.00011415798
8.663872e-05
5.8189614e-05
3.4407639e-05
2.2957209e-05
1.8037381e-05
1.439714e-05
1.0689241e-05
7.5022877e-06
5.0831203e-06
2.8392644e-06
1.5940543e-06
8.7457479e-07
4.4909306e-07
1.7316724e-07
5.3654176e-08
1.358067e-08
2.8305087e-09
4.7431937e-10
6.0140354e-11
6.6565532e-12
2.6828525e-12
2.875188e-12
0.0011607942
0.00022868048
0.0010985091
0.0012910654
0.0011987219
0.00071838908
0.00016767435
0.00011452644
8.6892598e-05
5.8378585e-05
3.4417553e-05
2.2955114e-05
1.8033283e-05
1.4394085e-05
1.0687159e-05
7.5013125e-06
5.0808046e-06
2.8384096e-06
1.5937326e-06
8.7444451e-07
4.4902396e-07
1.730734e-07
5.362092e-08
1.3572196e-08
2.8288664e-09
4.7407545e-10
6.0114407e-11
6.6548232e-12
2.6825626e-12
2.8747135e-12
0.0011612634
0.00022872109
0.0010988134
0.0012910881
0.0011985686
0.00072353326
0.00016833251
0.00011489854
8.7148555e-05
5.8569136e-05
3.4427469e-05
2.2952925e-05
1.802915e-05
1.4391003e-05
1.0685134e-05
7.5003924e-06
5.0785459e-06
2.8375855e-06
1.5934282e-06
8.7432489e-07
4.4896127e-07
1.7298256e-07
5.358898e-08
1.3564158e-08
2.8273294e-09
4.7385051e-10
6.0090854e-11
6.6532754e-12
2.6822908e-12
2.8742602e-12
0.0011617362
0.00022875576
0.0010991189
0.0012911051
0.0011984099
0.0007288688
0.00016900192
0.00011527474
8.7406939e-05
5.8761892e-05
3.4437453e-05
2.2950602e-05
1.8024965e-05
1.4387939e-05
1.0683158e-05
7.499513e-06
5.076304e-06
2.8367584e-06
1.5931131e-06
8.7419312e-07
4.4888853e-07
1.7288463e-07
5.3554009e-08
1.3555149e-08
2.8255644e-09
4.7358565e-10
6.0062388e-11
6.6513604e-12
2.6819907e-12
2.8737779e-12
0.0011622128
0.00022878477
0.0010994254
0.0012911165
0.0011982455
0.00073442899
0.00016968343
0.00011565541
8.7668458e-05
5.8957179e-05
3.4447482e-05
2.2948114e-05
1.8020715e-05
1.4384906e-05
1.068124e-05
7.4986883e-06
5.0740818e-06
2.8359461e-06
1.5928094e-06
8.7406973e-07
4.488214e-07
1.7278937e-07
5.3520208e-08
1.3546537e-08
2.8238981e-09
4.733385e-10
6.0036099e-11
6.6496005e-12
2.6816985e-12
2.8733045e-12
0.0011626932
0.00022880807
0.0010997327
0.0012911221
0.0011980751
0.00074022107
0.00017037662
0.00011604115
8.7933627e-05
5.9155261e-05
3.4457563e-05
2.2945424e-05
1.8016382e-05
1.4381895e-05
1.0679372e-05
7.4979115e-06
5.0718595e-06
2.8351344e-06
1.5925047e-06
8.7394378e-07
4.4875159e-07
1.7269244e-07
5.3485549e-08
1.353763e-08
2.8221561e-09
4.7307703e-10
6.0007909e-11
6.6476451e-12
2.681335e-12
2.8727509e-12
0.0011631775
0.00022882555
0.0011000408
0.001291122
0.0011978991
0.00074624191
0.00017108188
0.00011643156
8.8201388e-05
5.9355511e-05
3.4467717e-05
2.2942491e-05
1.8011946e-05
1.4378894e-05
1.067755e-05
7.4971807e-06
5.0696851e-06
2.8343512e-06
1.5922175e-06
8.7382925e-07
4.4868919e-07
1.7259913e-07
5.3452471e-08
1.3529245e-08
2.8205387e-09
4.7283793e-10
5.998251e-11
6.6459025e-12
2.6809939e-12
2.872223e-12
0.0011636658
0.0002288366
0.0011003495
0.0012911164
0.0011977174
0.00075251601
0.00017180037
0.0001168267
8.8471321e-05
5.9557452e-05
3.4477905e-05
2.2939289e-05
1.8007383e-05
1.4375891e-05
1.0675761e-05
7.496482e-06
5.0675217e-06
2.8335627e-06
1.5919201e-06
8.7370342e-07
4.4861741e-07
1.7249896e-07
5.3416435e-08
1.351991e-08
2.8186985e-09
4.7255959e-10
5.9952261e-11
6.6437965e-12
2.6806262e-12
2.8716677e-12
0.0011641582
0.00022884021
0.001100659
0.0012911053
0.0011975307
0.00075903249
0.00017253334
0.00011722786
8.8745167e-05
5.976209e-05
3.4488134e-05
2.2935826e-05
1.8002676e-05
1.4372881e-05
1.0674013e-05
7.4958291e-06
5.0653731e-06
2.8327867e-06
1.5916325e-06
8.735858e-07
4.4855118e-07
1.724017e-07
5.338165e-08
1.3511001e-08
2.8169622e-09
4.7229978e-10
5.9924285e-11
6.641853e-12
2.6802655e-12
2.8711202e-12
0.0011646549
0.00022883631
0.0011009691
0.0012910891
0.00119734
0.00076573403
0.00017328125
0.00011763564
8.9023071e-05
5.9969545e-05
3.4498414e-05
2.2932096e-05
1.7997805e-05
1.436985e-05
1.0672296e-05
7.4952135e-06
5.0632193e-06
2.8320076e-06
1.5913413e-06
8.7346445e-07
4.4848178e-07
1.7230268e-07
5.3346017e-08
1.3501801e-08
2.8151529e-09
4.7202642e-10
5.9894513e-11
6.6397184e-12
2.6798319e-12
2.8704904e-12
0.0011651559
0.00022882505
0.0011012804
0.0012910678
0.0011971465
0.00077258053
0.0001740449
0.00011804989
8.9303437e-05
6.0178651e-05
3.4508712e-05
2.2928069e-05
1.7992753e-05
1.436679e-05
1.0670609e-05
7.4946352e-06
5.0611118e-06
2.8312554e-06
1.5910668e-06
8.7335435e-07
4.4841947e-07
1.7220699e-07
5.3311846e-08
1.3493081e-08
2.8134599e-09
4.7177415e-10
5.9867439e-11
6.6378027e-12
2.6794313e-12
2.869898e-12
0.0011656615
0.00022880606
0.0011015929
0.0012910419
0.0011969516
0.00077956353
0.00017482774
0.00011847188
8.9586445e-05
6.038947e-05
3.451903e-05
2.2923709e-05
1.7987498e-05
1.4363687e-05
1.0668939e-05
7.4940795e-06
5.0590073e-06
2.8304944e-06
1.5907793e-06
8.7323063e-07
4.4834649e-07
1.7210391e-07
5.3274535e-08
1.3483353e-08
2.8115297e-09
4.7148016e-10
5.9835204e-11
6.6355052e-12
2.6790083e-12
2.8692826e-12
0.0011661718
0.0002287798
0.0011019068
0.0012910116
0.001196758
0.00078663728
0.00017563426
0.00011890359
8.9873401e-05
6.0602919e-05
3.4529376e-05
2.2918994e-05
1.7982022e-05
1.4360533e-05
1.0667295e-05
7.4935622e-06
5.0569104e-06
2.8297425e-06
1.5904996e-06
8.7311395e-07
4.4827877e-07
1.7200358e-07
5.3238427e-08
1.3474045e-08
2.809704e-09
4.7120497e-10
5.9805296e-11
6.6333694e-12
2.6785868e-12
2.8686691e-12
0.001166687
0.00022874725
0.0011022225
0.0012909776
0.0011965689
0.00079371463
0.00017646769
0.00011934644
9.0163882e-05
6.0818815e-05
3.4539762e-05
2.2913891e-05
1.7976301e-05
1.4357308e-05
1.0665668e-05
7.4930759e-06
5.0547883e-06
2.8289841e-06
1.5902146e-06
8.7299236e-07
4.4820714e-07
1.719011e-07
5.3201342e-08
1.3464405e-08
2.8077941e-09
4.70914e-10
5.9773285e-11
6.6310095e-12
2.6780787e-12
2.8679591e-12
0.0011672072
0.00022870862
0.0011025403
0.0012909403
0.0011963859
0.00080078773
0.00017732996
0.00011980138
9.0456387e-05
6.1035906e-05
3.4550152e-05
2.2908374e-05
1.7970311e-05
1.4353981e-05
1.0664054e-05
7.4926214e-06
5.0526561e-06
2.8282493e-06
1.5899459e-06
8.7288163e-07
4.4807148e-07
1.7180203e-07
5.3165776e-08
1.3455273e-08
2.8060075e-09
4.7064536e-10
5.9744089e-11
6.6288654e-12
2.6775928e-12
2.8672749e-12
0.0011677326
0.00022866352
0.0011028604
0.0012909
0.0011962027
0.00080801011
0.00017821931
0.00012026656
9.0751317e-05
6.1254002e-05
3.456051e-05
2.2902407e-05
1.7964029e-05
1.4350487e-05
1.066244e-05
7.4921874e-06
5.0504464e-06
2.8275032e-06
1.5896659e-06
8.7275765e-07
4.47881e-07
1.7169573e-07
5.3127126e-08
1.3445152e-08
2.8039886e-09
4.7033577e-10
5.9709826e-11
6.6263426e-12
2.6770807e-12
2.8665632e-12
0.0011682633
0.00022861189
0.0011031831
0.0012908572
0.0011960161
0.00081551311
0.00017913585
0.00012074194
9.1049827e-05
6.1473633e-05
3.4570831e-05
2.2895975e-05
1.7957437e-05
1.4346752e-05
1.0660834e-05
7.4917879e-06
5.0482425e-06
2.8267655e-06
1.5893935e-06
8.7264091e-07
4.4769521e-07
1.7159224e-07
5.3089721e-08
1.3435464e-08
2.8020757e-09
4.7004517e-10
5.9677895e-11
6.6239882e-12
2.6765772e-12
2.865861e-12
0.0011687995
0.0002285547
0.001103509
0.0012908124
0.0011958263
0.00082335414
0.00018008055
0.00012122789
9.1351495e-05
6.1694117e-05
3.4581066e-05
2.2889031e-05
1.7950519e-05
1.4342918e-05
1.0659233e-05
7.4914159e-06
5.0460261e-06
2.8260211e-06
1.5891154e-06
8.7251926e-07
4.4750659e-07
1.7148684e-07
5.305143e-08
1.3425475e-08
2.8000881e-09
4.6974068e-10
5.9644122e-11
6.6214321e-12
2.6759928e-12
2.865068e-12
0.0011693414
0.00022849299
0.0011038387
0.0012907657
0.0011956334
0.00083156128
0.00018105438
0.00012172402
9.1655841e-05
6.1915831e-05
3.4591338e-05
2.2881537e-05
1.7943252e-05
1.4338978e-05
1.0657634e-05
7.4910715e-06
5.0438507e-06
2.8252994e-06
1.5888509e-06
8.7240675e-07
4.4732239e-07
1.7138433e-07
5.3014453e-08
1.3415926e-08
2.798207e-09
4.6945556e-10
5.9612812e-11
6.619065e-12
2.6754261e-12
2.8642962e-12
0.0011698891
0.00022842686
0.0011041728
0.0012907175
0.0011954379
0.00084017297
0.00018205957
0.000122231
9.1962743e-05
6.2138293e-05
3.460162e-05
2.2873453e-05
1.7935634e-05
1.4334922e-05
1.0656029e-05
7.4907426e-06
5.0416784e-06
2.8245663e-06
1.5885718e-06
8.7227977e-07
4.4712595e-07
1.7127435e-07
5.2974334e-08
1.3405374e-08
2.7960911e-09
4.6912911e-10
5.9576385e-11
6.6163144e-12
2.6748331e-12
2.8634973e-12
0.0011704429
0.00022835711
0.0011045119
0.0012906686
0.0011952402
0.00084922128
0.00018309984
0.00012275044
9.2273265e-05
6.2362479e-05
3.4611933e-05
2.2864798e-05
1.7927659e-05
1.4330752e-05
1.065443e-05
7.490448e-06
5.0395132e-06
2.8238404e-06
1.588299e-06
8.7215888e-07
4.4693349e-07
1.7116685e-07
5.2935322e-08
1.3395214e-08
2.7940723e-09
4.6881986e-10
5.9542084e-11
6.6137154e-12
2.6742469e-12
2.8627062e-12
0.0011710029
0.00022828521
0.0011048563
0.0012906196
0.0011950413
0.00085869303
0.00018417885
0.00012328369
9.2587856e-05
6.2588738e-05
3.4622301e-05
2.2855644e-05
1.7919325e-05
1.432646e-05
1.0652831e-05
7.4901828e-06
5.0373379e-06
2.8231069e-06
1.5880205e-06
8.7203286e-07
4.4673805e-07
1.7105736e-07
5.2895409e-08
1.338475e-08
2.7919774e-09
4.6849649e-10
5.9505875e-11
6.610908e-12
2.673578e-12
2.8618229e-12
0.0011715693
0.0002282111
0.0011052066
0.0012905716
0.0011948435
0.00086852812
0.00018530058
0.00012383208
9.2906095e-05
6.2816023e-05
3.4632685e-05
2.2845997e-05
1.7910627e-05
1.4322047e-05
1.0651236e-05
7.4899499e-06
5.0352031e-06
2.8223973e-06
1.5877554e-06
8.7191577e-07
4.4654707e-07
1.7095079e-07
5.2856816e-08
1.3374728e-08
2.789988e-09
4.6819219e-10
5.9472056e-11
6.6082801e-12
2.6729234e-12
2.860957e-12
0.0011721422
0.00022813408
0.001105563
0.0012905253
0.0011946521
0.00087847663
0.00018647278
0.0001243986
9.3227916e-05
6.3043995e-05
3.464308e-05
2.2835861e-05
1.7901567e-05
1.4317508e-05
1.0649637e-05
7.4897395e-06
5.0330762e-06
2.8216794e-06
1.5874776e-06
8.7178577e-07
4.4634504e-07
1.7083744e-07
5.2815381e-08
1.3363807e-08
2.7877897e-09
4.6785109e-10
5.9433671e-11
6.605306e-12
2.672242e-12
2.8600626e-12
0.0011727218
0.00022805519
0.0011059259
0.0012904814
0.001194479
0.00088832091
0.00018770613
0.00012499077
9.3553493e-05
6.3272981e-05
3.4653475e-05
2.2825251e-05
1.7892147e-05
1.4312851e-05
1.064805e-05
7.4895697e-06
5.0309636e-06
2.820972e-06
1.5872071e-06
8.7166192e-07
4.4614675e-07
1.707264e-07
5.2774975e-08
1.3353244e-08
2.7856789e-09
4.6752569e-10
5.9397215e-11
6.6024756e-12
2.6715722e-12
2.8591812e-12
0.0011733081
0.00022797574
0.0011062957
0.0012904404
0.0011943088
0.00089837469
0.00018899605
0.00012560378
9.3882971e-05
6.3503088e-05
3.4663895e-05
2.2814185e-05
1.7882376e-05
1.4308078e-05
1.0646474e-05
7.4894379e-06
5.0288491e-06
2.820262e-06
1.5869324e-06
8.7153368e-07
4.4594573e-07
1.7061355e-07
5.2733758e-08
1.3342412e-08
2.7835021e-09
4.6718803e-10
5.9359134e-11
6.5994643e-12
2.670829e-12
2.8582174e-12
0.0011739011
0.00022789538
0.0011066727
0.0012904029
0.0011941334
0.00090895251
0.00019034034
0.00012623607
9.4216598e-05
6.3733871e-05
3.4674348e-05
2.2802681e-05
1.7872268e-05
1.4303192e-05
1.0644912e-05
7.4893473e-06
5.0267855e-06
2.8195777e-06
1.5866716e-06
8.7141413e-07
4.4574855e-07
1.7050319e-07
5.269365e-08
1.3331951e-08
2.7814155e-09
4.6686692e-10
5.9323181e-11
6.5966243e-12
2.6701091e-12
2.8572807e-12
0.001174501
0.00022781358
0.0011070573
0.0012903694
0.0011939517
0.00092016158
0.00019174225
0.00012688867
9.4554805e-05
6.3965252e-05
3.4684826e-05
2.2790751e-05
1.7861836e-05
1.4298197e-05
1.0643361e-05
7.4892887e-06
5.0247363e-06
2.8188863e-06
1.5863973e-06
8.7128022e-07
4.4553945e-07
1.7038551e-07
5.2650502e-08
1.3320523e-08
2.7791024e-09
4.6650584e-10
5.9282253e-11
6.5934046e-12
2.6693578e-12
2.856311e-12
0.0011751078
0.00022773089
0.0011074496
0.0012903402
0.0011937629
0.00093208829
0.0001932063
0.00012756366
9.4897916e-05
6.419758e-05
3.4695317e-05
2.2778396e-05
1.7851107e-05
1.4293106e-05
1.064184e-05
7.4892838e-06
5.0227076e-06
2.8182082e-06
1.5861311e-06
8.7115256e-07
4.4533379e-07
1.7027005e-07
5.2608333e-08
1.3309444e-08
2.7768768e-09
4.6616055e-10
5.924328e-11
6.5903294e-12
2.6686185e-12
2.8553547e-12
0.0011757215
0.00022764896
0.0011078502
0.0012903157
0.0011935668
0.00094480084
0.00019473558
0.00012826143
9.5245905e-05
6.4430835e-05
3.4705825e-05
2.2765585e-05
1.7840104e-05
1.4287931e-05
1.0640352e-05
7.4893333e-06
5.0206782e-06
2.8175305e-06
1.5858619e-06
8.7102049e-07
4.4512522e-07
1.7015256e-07
5.2565247e-08
1.3298052e-08
2.7745715e-09
4.6580021e-10
5.9202287e-11
6.587037e-12
2.6677958e-12
2.8543056e-12
0.0011763418
0.00022756835
0.0011082595
0.001290296
0.001193363
0.00094573446
0.0001963326
0.00012898236
9.5599108e-05
6.4664642e-05
3.4716358e-05
2.2752401e-05
1.7828855e-05
1.4282682e-05
1.0638905e-05
7.4894416e-06
5.0186951e-06
2.8168847e-06
1.5856109e-06
8.7089948e-07
4.4492156e-07
1.7003836e-07
5.2523615e-08
1.3287148e-08
2.7723841e-09
4.6546125e-10
5.9163997e-11
6.5839554e-12
2.6669974e-12
2.853285e-12
0.0011769689
0.00022748799
0.0011086779
0.0012902809
0.0011931512
0.00094541271
0.00019800204
0.00012972794
9.5958126e-05
6.4889723e-05
3.4726927e-05
2.2738997e-05
1.781739e-05
1.4277369e-05
1.0637495e-05
7.4895999e-06
5.016702e-06
2.8162358e-06
1.5853503e-06
8.70764e-07
4.4470144e-07
1.6991647e-07
5.2478841e-08
1.3275239e-08
2.7699601e-09
4.6508033e-10
5.9120473e-11
6.5804731e-12
2.6661653e-12
2.8522286e-12
0.0011776026
0.00022740711
0.0011091055
0.0012902708
0.0011929312
0.00094505894
0.00019974961
0.0001305009
9.632336e-05
6.5010346e-05
3.4737503e-05
2.2725425e-05
1.7805751e-05
1.4272015e-05
1.0636143e-05
7.4898302e-06
5.0146877e-06
2.815607e-06