/*--------------------------------*- C++ -*----------------------------------*\
| =========                 |                                                 |
| \\      /  F ield         | OpenFOAM: The Open Source CFD Toolbox           |
|  \\    /   O peration     | Version:  v2012                                 |
|   \\  /    A nd           | Website:  www.openfoam.com                      |
|    \\/     M anipulation  |                                                 |
\*---------------------------------------------------------------------------*/
FoamFile
{
    version     2.0;
    format      ascii;
    class       volScalarField;
    location    "100";
    object      k;
}
// * * * * * * * * * * * * * * * * * * * * * * * * * * * * * * * * * * * * * //

dimensions      [0 2 -2 0 0 0 0];


internalField   nonuniform List<scalar> 
24000
(
0.092594256
0.10249235
0.094308004
0.092402292
0.091939987
0.092760392
0.09573697
0.10107833
0.10713016
0.11602871
0.13255496
0.16479936
0.21744142
0.28517109
0.36544291
0.46878466
0.59957214
0.70020409
0.70423447
0.59290662
0.41522322
0.23710804
0.1150179
0.049330354
0.018934438
0.0063756869
0.0018067632
0.00049904941
0.00063292203
0.0044965587
0.092541393
0.10236732
0.094195144
0.092322965
0.091859262
0.092661828
0.095589156
0.10087792
0.10680007
0.11551525
0.13180743
0.16334074
0.21477896
0.28063601
0.35860547
0.45835647
0.58589218
0.68779585
0.69599635
0.58966608
0.41518834
0.23784655
0.11603982
0.050040639
0.01928203
0.0065153176
0.0018697682
0.0005771906
0.00091002728
0.0065487809
0.092509319
0.10233128
0.094176725
0.092315246
0.091844689
0.092633904
0.095524068
0.10085503
0.10676354
0.11541794
0.13154854
0.16289679
0.21407309
0.27969169
0.35690988
0.45589657
0.5836972
0.68803155
0.7013077
0.59961058
0.42660645
0.24736469
0.12148214
0.052541191
0.020265816
0.0068444838
0.0019527618
0.00057265093
0.0008254233
0.0059226856
0.092502413
0.10230436
0.094164951
0.092311807
0.091840924
0.09262032
0.095504459
0.10085272
0.10675846
0.11538762
0.13148123
0.16277399
0.2138442
0.27912593
0.35642301
0.45527554
0.58295357
0.68743197
0.70064478
0.59855499
0.42504507
0.24572893
0.12040501
0.052001397
0.020042236
0.0067673059
0.0019327223
0.00057316712
0.00084406261
0.0060646904
0.092496409
0.10227867
0.094155929
0.092310815
0.091838491
0.092609967
0.095483575
0.10084787
0.10674992
0.11535138
0.13139688
0.16263571
0.21366272
0.27890741
0.35615767
0.45497816
0.5825878
0.68702756
0.70039317
0.59857612
0.42529357
0.24604519
0.12061466
0.052104764
0.020084421
0.006781688
0.0019363299
0.00057276401
0.00083948675
0.0060305657
0.092491015
0.10225451
0.094147444
0.092309247
0.091836797
0.092601316
0.095466314
0.10084333
0.10674109
0.11531512
0.13131485
0.16250572
0.21350726
0.27874627
0.35598967
0.45484754
0.58248056
0.68682032
0.70004284
0.59814781
0.42489533
0.24575268
0.12045208
0.052029953
0.020054682
0.0067715227
0.0019334779
0.00057212742
0.00083915344
0.0060285393
0.092485747
0.10223124
0.094139352
0.092307273
0.091834921
0.092593794
0.095451238
0.10083772
0.10673016
0.11527602
0.13122689
0.16237164
0.21335585
0.27860139
0.35585645
0.45477897
0.58246645
0.68669024
0.6997479
0.59776071
0.42454422
0.24551201
0.12032682
0.051975338
0.020033834
0.006764567
0.0019314827
0.00057144775
0.00083790014
0.0060194405
0.092480577
0.10220848
0.094131509
0.092304979
0.091833094
0.092587293
0.09543755
0.10083108
0.1067173
0.11523466
0.13113524
0.16223369
0.21320156
0.27845864
0.3557321
0.45472846
0.58248241
0.68659507
0.69948054
0.59738012
0.42417912
0.24524858
0.12018589
0.051913109
0.020009997
0.0067566507
0.0019292697
0.00057081838
0.00083700445
0.0060129109
0.09247546
0.10218599
0.094123842
0.092302498
0.091831268
0.092581605
0.095425074
0.10082349
0.10670257
0.11519116
0.1310401
0.16209126
0.21304161
0.27831102
0.35560436
0.45467605
0.58249896
0.68650676
0.69923326
0.59702962
0.42384499
0.24500853
0.1200593
0.051858223
0.019989377
0.0067499299
0.0019274285
0.00057031032
0.00083628948
0.0060076034
0.092470365
0.10216362
0.094116296
0.092299911
0.091829408
0.092576523
0.095413871
0.10081505
0.10668607
0.11514574
0.130942
0.16194473
0.2128756
0.27815641
0.35546842
0.45461281
0.58250318
0.68641443
0.6990003
0.59670927
0.4235442
0.24479336
0.11994713
0.051810373
0.019971725
0.0067442926
0.0019259235
0.00056992438
0.00083579248
0.006003813
0.092465273
0.10214127
0.094108837
0.092297269
0.091827485
0.092571885
0.095403997
0.10080587
0.10666793
0.11509848
0.13084131
0.16179498
0.21270438
0.27799478
0.35532284
0.45453538
0.5824896
0.68631197
0.69877678
0.59641788
0.42327968
0.24460795
0.11985298
0.051771438
0.019957853
0.0067400221
0.0019248292
0.00056965739
0.00083544294
0.0060010259
0.092460169
0.1021189
0.094101435
0.092294603
0.091825492
0.092567616
0.09539532
0.10079607
0.10664838
0.11504946
0.13073883
0.1616432
0.21252928
0.27782721
0.35516821
0.45444363
0.58245737
0.68619733
0.69855718
0.59614638
0.42304152
0.24444475
0.11977206
0.051738884
0.019946622
0.0067366901
0.0019240086
0.00056945868
0.00083514746
0.0059985817
0.092455045
0.10209646
0.094094069
0.092291927
0.091823468
0.092563811
0.095387405
0.10078578
0.10662775
0.11499897
0.13063523
0.1614901
0.21235125
0.27765492
0.35500568
0.45433845
0.58240664
0.6860687
0.69833522
0.59588402
0.42281783
0.24429505
0.11969956
0.051710513
0.019937156
0.0067339908
0.0019233714
0.00056929622
0.00083484995
0.0059960962
0.092449895
0.10207396
0.094086721
0.092289248
0.091821412
0.092560513
0.095380099
0.10077497
0.10660607
0.11494756
0.13053072
0.16133605
0.2121712
0.2774792
0.35483691
0.45422176
0.58233918
0.68592595
0.69810563
0.59561901
0.42259365
0.24414547
0.11962692
0.05168195
0.01992758
0.0067312509
0.001922721
0.0005691244
0.00083452209
0.0059933895
0.092444716
0.10205138
0.094079379
0.09228657
0.091819308
0.09255763
0.095373404
0.1007636
0.10658333
0.11489539
0.13042547
0.16118139
0.21198989
0.27730119
0.35466334
0.45409514
0.5822556
0.68576687
0.69786302
0.59534527
0.42236417
0.24399331
0.11955325
0.051653029
0.019917902
0.0067284892
0.0019220704
0.00056895928
0.00083422006
0.0059908735
0.092439503
0.10202871
0.094072034
0.092283899
0.091817149
0.092555099
0.095367261
0.10075167
0.10655954
0.11484242
0.13031953
0.16102632
0.2118079
0.27712179
0.35448629
0.4539602
0.58215712
0.68559092
0.69760553
0.59506145
0.42212915
0.24383859
0.11947852
0.051623693
0.019908071
0.0067256802
0.0019214129
0.00056880923
0.00083398442
0.0059888391
0.092434253
0.10200597
0.09406468
0.092281232
0.091814925
0.092552864
0.095361585
0.10073917
0.10653475
0.11478859
0.13021289
0.16087094
0.21162562
0.27694153
0.3543068
0.45381844
0.58204532
0.68539923
0.69733447
0.59477026
0.42189258
0.24368551
0.11940568
0.051595556
0.019898803
0.0067230838
0.0019208228
0.00056868621
0.00083380548
0.0059872136
0.092428967
0.10198317
0.094057312
0.09227857
0.091812635
0.092550873
0.09535629
0.10072611
0.10650907
0.1147338
0.13010559
0.16071541
0.21144349
0.27676099
0.3541262
0.4536722
0.58192395
0.68519592
0.69705288
0.59447139
0.42165121
0.24352962
0.11933131
0.05156664
0.0198892
0.0067203697
0.0019202012
0.00056856214
0.00083364677
0.0059857401
0.092423648
0.10196033
0.094049933
0.092275902
0.091810278
0.092549073
0.095351289
0.10071249
0.10648259
0.11467801
0.12999769
0.16055982
0.21126181
0.27658051
0.35394541
0.45352298
0.58179485
0.68498231
0.6967616
0.59416634
0.42140739
0.24337373
0.11925755
0.051538199
0.019879837
0.0067177486
0.0019196092
0.00056844871
0.00083350846
0.0059844161
0.092418295
0.10193747
0.094042541
0.09227321
0.091807849
0.092547406
0.09534648
0.10069832
0.10645541
0.1146212
0.1298893
0.16040425
0.21108083
0.27640045
0.35376524
0.45337213
0.58165994
0.68476038
0.69646182
0.59385476
0.42115956
0.2432158
0.11918275
0.051509232
0.01987024
0.0067150399
0.0019189906
0.00056832923
0.00083336658
0.0059830672
0.092412907
0.10191462
0.094035137
0.092270469
0.091805343
0.092545823
0.095341776
0.10068365
0.10642761
0.11456351
0.12978043
0.16024877
0.21090082
0.2762215
0.35358647
0.45322058
0.58152025
0.68453085
0.69615352
0.5935365
0.42090798
0.24305689
0.11910803
0.051480519
0.019860796
0.006712394
0.0019183914
0.00056821384
0.00083322692
0.0059817378
0.092407487
0.1018918
0.094027724
0.092267649
0.091802757
0.092544274
0.095337089
0.1006685
0.10639931
0.11450512
0.12967104
0.16009344
0.21072205
0.276045
0.35341007
0.45306985
0.58137812
0.68429611
0.69583788
0.59320957
0.42064808
0.24289137
0.11902925
0.051449749
0.01985048
0.00670944
0.0019177053
0.00056808224
0.0008330894
0.0059804333
0.092402034
0.10186903
0.094020303
0.09226472
0.091800089
0.092542709
0.095332333
0.10065292
0.1063706
0.11444609
0.12956108
0.15993818
0.21054455
0.27587109
0.35323629
0.4529203
0.58123372
0.68405607
0.69551552
0.59287693
0.42038467
0.24272454
0.11895023
0.051419038
0.019840233
0.0067065182
0.0019170303
0.00056795465
0.00083295997
0.0059791907
0.092396546
0.10184632
0.094012873
0.092261655
0.091797337
0.092541082
0.09532743
0.10063695
0.10634156
0.11438642
0.12945052
0.15978294
0.21036839
0.27569997
0.35306554
0.45277266
0.58108816
0.68381197
0.69518736
0.5925386
0.4201168
0.24255478
0.11886955
0.051387481
0.019829618
0.0067034617
0.0019163157
0.00056781899
0.00083282922
0.0059779396
0.092391025
0.10182368
0.09400543
0.092258435
0.091794504
0.09253935
0.095322311
0.10062062
0.10631224
0.11432611
0.12933938
0.15962767
0.21019359
0.27553179
0.35289805
0.45262729
0.58094173
0.68356406
0.69485356
0.59219543
0.41984624
0.2423846
0.11878924
0.051356332
0.019819222
0.0067004917
0.0019156277
0.00056769114
0.00083271013
0.0059767752
0.092385471
0.10180111
0.093997962
0.092255058
0.091791595
0.092537481
0.095316916
0.10060398
0.10628268
0.11426518
0.12922766
0.15947235
0.21002025
0.27536684
0.35273448
0.45248544
0.58079678
0.68331504
0.69451597
0.59184589
0.41956849
0.24220813
0.11870495
0.051323125
0.01980795
0.0066972111
0.0019148518
0.00056754608
0.00083258978
0.0059756114
0.092379883
0.1017786
0.093990454
0.092251527
0.091788619
0.092535451
0.095311204
0.10058706
0.10625293
0.11420363
0.12911535
0.15931696
0.20984834
0.27520515
0.35257484
0.45234725
0.58065325
0.68306479
0.69417549
0.59149349
0.41928891
0.24203115
0.11862076
0.05129012
0.019796799
0.00669398
0.0019140915
0.00056740513
0.00083247469
0.0059744886
0.092374262
0.10175615
0.093982892
0.092247849
0.091785587
0.092533245
0.095305146
0.10056988
0.10622299
0.11414149
0.12900249
0.15916157
0.20967785
0.2750468
0.35241935
0.45221318
0.58051202
0.6828145
0.69383318
0.59113842
0.41900653
0.24185176
0.11853499
0.051256251
0.019785259
0.0066906045
0.0019132885
0.00056725517
0.00083235665
0.0059733455
0.092368608
0.10173374
0.093975269
0.092244024
0.091782507
0.092530862
0.095298723
0.10055248
0.10619288
0.11407875
0.12888911
0.15900636
0.20950871
0.27489178
0.352268
0.45208322
0.58037296
0.68256399
0.69348915
0.59078219
0.41872414
0.24167344
0.11845033
0.051223118
0.019774066
0.0066873586
0.0019125246
0.00056711791
0.0008322608
0.0059723636
0.092362916
0.10171138
0.093967572
0.092240055
0.091779383
0.092528303
0.095291931
0.10053486
0.1061626
0.11401546
0.12877523
0.15885149
0.20934089
0.27474023
0.35212115
0.45195826
0.58023799
0.68231567
0.69314531
0.59042382
0.41843814
0.24149104
0.11836285
0.051188449
0.019762204
0.006683873
0.001911694
0.00056697213
0.00083218203
0.00597151
0.092357194
0.10168906
0.093959797
0.092235963
0.091776228
0.092525583
0.095284796
0.10051704
0.10613213
0.11395165
0.12866084
0.15869692
0.20917458
0.27459205
0.35197867
0.45183819
0.58010691
0.68206927
0.69280244
0.59006691
0.41815427
0.24131094
0.11827702
0.051154708
0.019750753
0.0066805359
0.0019109062
0.00056683553
0.00083210775
0.0059706859
0.092351446
0.10166679
0.093951945
0.09223177
0.091773058
0.092522719
0.095277347
0.10049906
0.10610148
0.11388734
0.12854591
0.15854269
0.2090098
0.27444731
0.35184069
0.45172335
0.57998058
0.68182583
0.69246093
0.58971033
0.41787
0.24112995
0.1181904
0.051120459
0.019739058
0.0066771042
0.0019100893
0.00056669148
0.0008320255
0.0059698004
0.092345668
0.10164456
0.093944014
0.092227481
0.091769873
0.092519719
0.095269612
0.10048094
0.10607062
0.1138225
0.12843048
0.15838878
0.20884649
0.27430583
0.35170693
0.45161328
0.5798582
0.68158456
0.69212013
0.58935468
0.41758739
0.24095118
0.11810553
0.051087265
0.019727845
0.0066738508
0.0019093248
0.0005665609
0.00083195797
0.0059690189
0.092339859
0.10162237
0.093936007
0.092223106
0.091766684
0.092516594
0.095261612
0.1004627
0.10603956
0.11375712
0.1283145
0.15823511
0.20868463
0.27416769
0.35157766
0.45150871
0.57974161
0.68134763
0.69178136
0.58899755
0.41730083
0.24076754
0.11801717
0.051052151
0.019715795
0.0066702979
0.0019084754
0.00056641334
0.00083188656
0.0059682148
0.092334021
0.10160022
0.093927923
0.092218653
0.091763492
0.092513362
0.095253381
0.10044434
0.10600827
0.11369118
0.12819791
0.15808158
0.20852405
0.27403258
0.35145244
0.45140897
0.57962953
0.68111376
0.69144462
0.58864245
0.4170165
0.24058615
0.11793041
0.051017948
0.019704157
0.006666896
0.0019076693
0.00056627296
0.00083181087
0.0059673774
0.092328153
0.1015781
0.093919766
0.092214131
0.091760299
0.092510033
0.095244957
0.1004259
0.10597675
0.11362465
0.12808072
0.15792816
0.2083647
0.27390036
0.35133119
0.451314
0.57952203
0.68088317
0.69110979
0.58828784
0.41673157
0.2404035
0.11784251
0.050983012
0.019692165
0.0066633581
0.0019068208
0.00056611901
0.0008317125
0.0059663709
0.092322256
0.10155602
0.093911541
0.092209546
0.091757107
0.09250662
0.095236369
0.10040738
0.10594497
0.11355749
0.12796289
0.15777477
0.20820641
0.27377063
0.35121349
0.45122309
0.57941776
0.68065417
0.69077512
0.58793363
0.41644794
0.24022311
0.11775653
0.050949263
0.019680728
0.006660026
0.0019060317
0.00056597611
0.00083161343
0.0059653581
0.09231633
0.10153398
0.093903248
0.092204902
0.091753917
0.092503137
0.095227643
0.10038878
0.10591293
0.11348961
0.12784439
0.15762131
0.20804914
0.27364319
0.35109968
0.45113708
0.5793187
0.68042884
0.69044133
0.58757594
0.4161579
0.24003565
0.1176656
0.050912833
0.01966812
0.0066562749
0.0019051229
0.00056580793
0.00083150414
0.0059642792
0.092310376
0.10151197
0.093894892
0.092200202
0.091750731
0.092499601
0.095218802
0.1003701
0.10588062
0.11342089
0.12772515
0.15746761
0.20789263
0.27351718
0.35098921
0.45105517
0.57922317
0.68020522
0.69010799
0.58721883
0.41586908
0.23984998
0.11757617
0.050877328
0.019655949
0.0066526864
0.001904262
0.00056564891
0.00083139493
0.0059631994
0.092304392
0.10149001
0.093886475
0.092195453
0.091747548
0.092496028
0.095209878
0.10035135
0.10584802
0.1133512
0.12760508
0.15731351
0.2077367
0.27339175
0.35088192
0.45097733
0.57913136
0.67998379
0.68977522
0.586861
0.41557881
0.23966256
0.11748535
0.050840965
0.019643368
0.0066489409
0.0019033521
0.00056547561
0.00083126553
0.0059619684
0.092298379
0.10146809
0.093878001
0.092190663
0.091744369
0.092492431
0.0952009
0.10033251
0.10581512
0.1132805
0.12748413
0.15715883
0.20758117
0.27326614
0.35077749
0.4509029
0.57904196
0.67976301
0.68944152
0.58650275
0.41528952
0.23947749
0.11739666
0.050805965
0.019631434
0.0066454394
0.0019025142
0.00056531731
0.00083114146
0.0059607748
0.092292337
0.10144621
0.093869473
0.092185836
0.091741204
0.092488824
0.09519187
0.10031358
0.10578195
0.11320913
0.1273621
0.15700332
0.20742609
0.27314237
0.35067657
0.45083298
0.57895756
0.67954571
0.68910813
0.58613989
0.41499239
0.23928402
0.11730214
0.050767807
0.01961812
0.0066414415
0.0019015343
0.00056513021
0.00083101059
0.0059595416
0.092286266
0.10142439
0.093860894
0.092180978
0.091738063
0.092485221
0.095182789
0.10029455
0.1057485
0.1131371
0.12723883
0.15684666
0.20727128
0.27302068
0.35057868
0.45076671
0.57887633
0.67932985
0.68877504
0.58577768
0.41469671
0.23909264
0.11720936
0.050730724
0.019605315
0.0066376351
0.0019006112
0.00056495409
0.00083087997
0.0059583096
0.092280167
0.10140261
0.093852265
0.092176093
0.091734951
0.092481633
0.095173668
0.1002754
0.10571477
0.11306437
0.1271142
0.15668851
0.20711659
0.27290094
0.35048372
0.45070402
0.57879846
0.67911598
0.68844262
0.58541487
0.41439954
0.23889932
0.11711498
0.050692644
0.019592029
0.0066336437
0.0018996303
0.00056476147
0.00083072728
0.0059569128
0.092274039
0.10138089
0.093843588
0.092171187
0.091731876
0.092478076
0.095164507
0.1002561
0.10568075
0.11299092
0.12698814
0.15652863
0.20696183
0.27278292
0.35039129
0.45064414
0.57872239
0.67890225
0.68810915
0.58505198
0.414104
0.23870904
0.11702322
0.050656174
0.019579497
0.0066299341
0.0018987325
0.00056458627
0.00083058117
0.0059555619
0.09226788
0.10135922
0.093834866
0.092166264
0.091728843
0.09247456
0.095155312
0.10023664
0.10564643
0.1129167
0.12686052
0.15636689
0.20680697
0.27266677
0.35030187
0.45058817
0.57865054
0.67869141
0.68777589
0.58468479
0.41380114
0.23851076
0.11692583
0.050616631
0.01956561
0.0066257332
0.0018976929
0.00056438217
0.00083042831
0.0059541722
0.092261691
0.10133759
0.093826098
0.092161325
0.091725857
0.092471093
0.095146088
0.10021699
0.10561177
0.11284168
0.12673122
0.15620343
0.20665171
0.27255214
0.35021497
0.45053524
0.57858114
0.67848135
0.68744258
0.58431837
0.41350009
0.23831494
0.11683042
0.05057828
0.019552281
0.0066217413
0.0018967152
0.00056419009
0.00083027586
0.0059527832
0.092255469
0.10131599
0.093817281
0.092156373
0.091722919
0.092467677
0.095136837
0.10019712
0.10557675
0.11276585
0.12660016
0.15603834
0.20649594
0.27243898
0.35013056
0.45048544
0.57851455
0.67827271
0.6871093
0.58395084
0.41319725
0.23811709
0.11673343
0.050538961
0.019538489
0.0066175709
0.0018956813
0.00056398159
0.00083010062
0.0059512241
0.092249211
0.10129442
0.093808413
0.092151407
0.091720033
0.092464306
0.095127564
0.10017698
0.10554134
0.11268917
0.12646722
0.15587142
0.20633945
0.27232698
0.35004827
0.45043799
0.57844921
0.67806368
0.68677433
0.58358268
0.41289556
0.23792193
0.11663884
0.050501166
0.019525422
0.0066136751
0.0018947294
0.00056379128
0.00082993536
0.005949736
0.092242915
0.10127286
0.093799494
0.092146425
0.091717194
0.092460962
0.095118281
0.10015653
0.1055055
0.1126116
0.12633227
0.15570249
0.2061822
0.27221629
0.34996867
0.45039414
0.57838769
0.67785723
0.68643909
0.58320946
0.41258572
0.23771812
0.11653826
0.050460114
0.019510923
0.0066092615
0.0018936285
0.00056357111
0.0008297653
0.0059482231
0.09223658
0.1012513
0.093790518
0.092141423
0.09171439
0.092457611
0.095109016
0.10013573
0.10546919
0.11253308
0.1261952
0.15553132
0.20602389
0.27210647
0.34989128
0.45035304
0.57832808
0.67765141
0.68610351
0.58283654
0.41227729
0.23751654
0.11643955
0.050420217
0.019496972
0.006605055
0.0018925893
0.00056336248
0.00082959356
0.0059466964
0.092230204
0.10122973
0.093781482
0.092136397
0.091711608
0.0924542
0.095099815
0.10011454
0.10543237
0.11245359
0.12605597
0.15535775
0.20586436
0.2719971
0.34981604
0.45031456
0.57826988
0.67744686
0.6857677
0.5824622
0.41196672
0.23731259
0.116339
0.05037921
0.019482495
0.0066006467
0.0018914868
0.00056313522
0.00082939545
0.0059449737
0.092223786
0.10120813
0.093772383
0.092131342
0.091708841
0.092450682
0.095090693
0.10009291
0.10539499
0.11237305
0.1259145
0.15518155
0.20570333
0.27188716
0.3497425
0.45027755
0.57820844
0.67724159
0.68542984
0.5820871
0.41165733
0.23711144
0.11624095
0.050339773
0.019468761
0.0065965193
0.0018904681
0.00056292569
0.00082920396
0.0059432977
0.092217322
0.10118648
0.093763219
0.092126255
0.091706112
0.092447148
0.095081491
0.10007079
0.10535697
0.11229132
0.1257707
0.15500252
0.20554068
0.27177492
0.34967112
0.45024305
0.57814399
0.67703848
0.68509121
0.58170686
0.41133994
0.23690185
0.11613707
0.050297167
0.019453632
0.0065918859
0.001889303
0.00056268639
0.00082900625
0.0059415862
0.092210809
0.10116478
0.093753984
0.092121132
0.091703432
0.092443635
0.095072115
0.10004811
0.10531826
0.11220818
0.12562455
0.15482036
0.20537606
0.27165761
0.34960141
0.45021113
0.57808139
0.67683561
0.68475192
0.5813268
0.41102398
0.23669459
0.11603512
0.050255742
0.01943906
0.006587462
0.0018882004
0.00056245942
0.00082880933
0.005939878
0.092204243
0.101143
0.093744669
0.092115967
0.091700797
0.092440135
0.09506253
0.1000248
0.10527874
0.11212323
0.12547614
0.15463477
0.20520936
0.27154061
0.34953362
0.4501819
0.57802109
0.67663373
0.68441218
0.58094522
0.41070596
0.23648515
0.11593153
0.050213332
0.019424021
0.0065828584
0.001887041
0.0005622153
0.00082858734
0.0059379832
0.092197623
0.10112112
0.093735266
0.092110758
0.091698203
0.092436635
0.095052704
0.10000079
0.10523843
0.11203724
0.12532525
0.15444536
0.20504034
0.27142375
0.34946746
0.45015474
0.57796186
0.67643114
0.68407038
0.58056252
0.41038859
0.236278
0.11583006
0.050172287
0.019409635
0.0065785039
0.0018859563
0.00056198698
0.00082837092
0.005936128
0.092190943
0.10109914
0.093725765
0.092105504
0.091695642
0.092433118
0.095042603
0.099976009
0.10519724
0.11195019
0.12517187
0.15425182
0.20486927
0.27130724
0.34940352
0.45013091
0.57790624
0.67623067
0.68372773
0.58017424
0.41006278
0.23606214
0.11572265
0.050128033
0.019393842
0.0065736401
0.0018847245
0.00056172873
0.00082814852
0.0059342396
0.0921842
0.10107703
0.093716157
0.092100197
0.091693102
0.092429565
0.095032195
0.099950365
0.1051551
0.11186207
0.12501598
0.15405425
0.20469597
0.27119081
0.34934142
0.45010965
0.57785246
0.67603041
0.68338433
0.5797859
0.40973806
0.23584826
0.11561691
0.050084822
0.019378543
0.0065689626
0.0018835482
0.00056148126
0.00082792624
0.005932351
0.09217739
0.10105478
0.093706438
0.092094827
0.091690567
0.092425946
0.095021464
0.099923773
0.10511192
0.11177284
0.12485774
0.15385364
0.20452045
0.27107451
0.34928123
0.45009115
0.57780099
0.675831
0.68304042
0.57939602
0.40941123
0.23563215
0.1155095
0.050040602
0.019362765
0.0065641009
0.0018823138
0.00056121626
0.00082767847
0.0059302738
0.09217051
0.10103238
0.093696602
0.092089383
0.091688011
0.092422205
0.095010421
0.099896142
0.10506765
0.11168252
0.12469725
0.15365001
0.20434268
0.27095823
0.34922273
0.45007484
0.57775061
0.67563084
0.68269451
0.57900517
0.4090852
0.23541839
0.1154042
0.049997713
0.019347618
0.0065594774
0.0018811505
0.00056096606
0.00082743506
0.0059282272
0.092163558
0.10100981
0.093686639
0.092083857
0.091685396
0.09241823
0.094999151
0.099867384
0.10502218
0.11159113
0.12453457
0.15344344
0.20416279
0.27084228
0.34916659
0.45006201
0.57770379
0.67543265
0.68234767
0.5786091
0.40875146
0.23519676
0.11529356
0.049951947
0.019331209
0.0065543961
0.0018798544
0.00056068841
0.00082718483
0.0059261399
0.092156528
0.10098706
0.093676544
0.092078235
0.091682655
0.092413747
0.094987899
0.099837413
0.10497548
0.11149867
0.12436981
0.15323399
0.20398072
0.27072654
0.34911259
0.45005211
0.57765905
0.67523479
0.68200001
0.5782128
0.40841862
0.23497694
0.11518446
0.049907145
0.019315256
0.006549487
0.0018786099
0.00056042131
0.00082693656
0.0059240651
0.092149418
0.10096412
0.093666313
0.092072506
0.091679836
0.092408995
0.09497629
0.099806172
0.10492749
0.11140515
0.12420314
0.15302182
0.20379659
0.27061114
0.34906094
0.45004546
0.57761702
0.67503811
0.68165189
0.57781491
0.4080837
0.23475504
0.11507387
0.049861454
0.019298885
0.0065444175
0.0018773146
0.00056013869
0.00082666544
0.0059218205
0.092142224
0.10094099
0.093655943
0.092066657
0.09167695
0.092404064
0.094964138
0.099773603
0.10487814
0.1113106
0.12403477
0.15280706
0.20361054
0.27049613
0.34901158
0.45004176
0.57757689
0.67484143
0.68130211
0.57741593
0.40774913
0.23453501
0.11496505
0.049816924
0.019283073
0.0065395618
0.0018760838
0.00055987031
0.00082640139
0.0059196269
0.092134945
0.10091765
0.093645431
0.092060676
0.091673982
0.092398928
0.094951408
0.099739642
0.10482739
0.11121506
0.12386491
0.1525898
0.20342286
0.27038197
0.34896535
0.4500425
0.57754138
0.6746477
0.68095195
0.57701156
0.40740629
0.2343065
0.11485047
0.049769295
0.019265904
0.0065342144
0.0018747105
0.00055957245
0.00082612998
0.0059173894
0.09212758
0.10089412
0.093634773
0.092054555
0.091670916
0.09239357
0.094938068
0.09970424
0.10477521
0.11111856
0.12369374
0.15236982
0.20323365
0.27026859
0.34892208
0.45004712
0.57750891
0.6744554
0.6806018
0.5766073
0.40706433
0.23407963
0.11473732
0.049722575
0.01924917
0.006529032
0.0018733869
0.00055928455
0.00082585995
0.0059151616
0.092120128
0.10087038
0.093623965
0.092048291
0.091667738
0.092387975
0.094924089
0.099667362
0.10472158
0.11102116
0.12352153
0.15214652
0.20304312
0.27015621
0.34888195
0.45005583
0.57747966
0.67426538
0.68025221
0.57620206
0.4067204
0.23385055
0.11462246
0.049674812
0.019231939
0.0065236579
0.0018720028
0.00055897865
0.00082556454
0.0059127457
0.092112587
0.10084645
0.093613005
0.092041885
0.091664438
0.092382134
0.09490945
0.099628979
0.10466648
0.11092293
0.12334854
0.15192074
0.20285151
0.27004486
0.34884487
0.45006801
0.57745169
0.67407601
0.67990179
0.57579665
0.40637745
0.23362421
0.11450998
0.049628529
0.019215406
0.0065185479
0.0018706977
0.00055868976
0.00082527606
0.0059103799
0.092104959
0.10082232
0.093601893
0.092035345
0.091661008
0.09237604
0.094894134
0.09958908
0.10460991
0.11082398
0.12317507
0.1516943
0.20265931
0.26993512
0.34881171
0.45008501
0.57742634
0.67389029
0.67955186
0.57538608
0.40602237
0.23338892
0.11439163
0.049579072
0.019197471
0.0065129256
0.001869243
0.00055836969
0.00082497948
0.0059079645
0.092097245
0.10079801
0.093590625
0.092028673
0.091657439
0.092369684
0.09487813
0.099547671
0.10455192
0.11072437
0.12300133
0.15146751
0.2024667
0.26982697
0.34878232
0.45010626
0.57740067
0.67370671
0.6792028
0.57497595
0.40566044
0.2331549
0.11427516
0.049530835
0.019180113
0.0065075205
0.0018678538
0.00055806423
0.00082469063
0.0059056038
0.092089442
0.10077353
0.093579202
0.092021871
0.091653722
0.092363063
0.094861435
0.099504779
0.10449253
0.11062418
0.12282759
0.15124077
0.20227398
0.26972063
0.348757
0.45013305
0.57738026
0.67352699
0.6788558
0.57456634
0.405298
0.23291956
0.11415746
0.049481773
0.019162343
0.0065019517
0.0018664111
0.00055774162
0.00082437446
0.0059030381
0.092081556
0.10074888
0.093567634
0.09201494
0.091649853
0.092356184
0.094844062
0.099460452
0.10443181
0.11052353
0.12265411
0.15101448
0.20208152
0.26961624
0.34873575
0.45016509
0.57736442
0.67334986
0.67850949
0.57415763
0.40493746
0.23268741
0.1140424
0.049434336
0.019145339
0.0064966736
0.0018650555
0.00055743688
0.00082406211
0.0059005003
0.092073592
0.10072408
0.093555932
0.092007872
0.091645832
0.092349056
0.094826031
0.099414757
0.10436984
0.1104225
0.12248115
0.15078905
0.20188982
0.26951443
0.34871954
0.45020412
0.57735637
0.6731789
0.67816539
0.57374476
0.40456842
0.23244594
0.11392079
0.049383305
0.019126738
0.0064908101
0.0018635285
0.00055709626
0.00082374016
0.0058979039
0.092065552
0.10069916
0.0935441
0.092000659
0.091641655
0.092341688
0.094807362
0.099367765
0.10430669
0.11032116
0.12230886
0.15056473
0.20169904
0.2694151
0.34870797
0.45024946
0.57735433
0.67301233
0.67782416
0.57333456
0.40420224
0.23220751
0.11380143
0.04933359
0.019108745
0.0064851739
0.0018620697
0.00055677041
0.00082342457
0.0058953542
0.09205744
0.10067411
0.093532146
0.091993295
0.091637326
0.092334103
0.094788087
0.099319572
0.10424245
0.1102196
0.12213746
0.15034188
0.20150956
0.26931845
0.34870119
0.45030134
0.57735902
0.67285142
0.67748685
0.57292633
0.40383639
0.23196804
0.11368086
0.049283002
0.019090303
0.0064793566
0.0018605517
0.00055642669
0.00082308395
0.0058926174
0.09204926
0.10064897
0.093520079
0.091985784
0.09163285
0.092326331
0.094768245
0.099270285
0.10417726
0.11011792
0.12196713
0.15012086
0.2013217
0.26922456
0.34869888
0.45035907
0.57736929
0.67269461
0.67715231
0.57252152
0.40347483
0.23173349
0.11356393
0.049234526
0.019072827
0.0064738999
0.0018591414
0.00055610693
0.00082275582
0.0058899695
0.092041019
0.10062374
0.093507911
0.091978136
0.091628237
0.092318394
0.094747898
0.099220022
0.10411121
0.1100162
0.12179806
0.14990207
0.20113599
0.26913401
0.3487019
0.45042422
0.57738815
0.67254548
0.67682226
0.57211533
0.4031074
0.23149147
0.11344148
0.04918292
0.019053935
0.0064679179
0.0018575759
0.00055575525
0.0008224217
0.0058872858
0.092032718
0.10059845
0.093495646
0.091970358
0.091623494
0.09231032
0.094727106
0.099168905
0.10404442
0.10991451
0.1216303
0.14968574
0.20095262
0.26904669
0.34870981
0.45049589
0.57741369
0.6724021
0.676497
0.57171401
0.40274483
0.2312539
0.11332206
0.049133002
0.019035806
0.0064622179
0.0018560943
0.00055542104
0.00082209206
0.0058846319
0.092024366
0.1005731
0.0934833
0.091962467
0.09161864
0.092302144
0.094705944
0.099117076
0.10397703
0.10981291
0.12146399
0.14947216
0.20077196
0.26896286
0.3487227
0.45057423
0.57744663
0.67226554
0.67617696
0.57131574
0.40238334
0.23101576
0.11320168
0.049082334
0.019017277
0.0064563534
0.0018545571
0.00055506721
0.00082172763
0.0058817197
0.092015972
0.10054774
0.093470886
0.091954479
0.091613693
0.092293905
0.094684482
0.099064677
0.10390918
0.10971148
0.1212992
0.1492616
0.20059429
0.26888258
0.34874021
0.45065842
0.57748555
0.67213386
0.67586037
0.57092109
0.40202589
0.23078215
0.11308465
0.049033632
0.018999657
0.0064508309
0.0018531226
0.00055473673
0.00082137666
0.0058789045
0.09200754
0.10052237
0.093458414
0.091946402
0.091608666
0.092285632
0.094662777
0.099011835
0.10384097
0.10961023
0.12113594
0.14905427
0.20042002
0.26880633
0.34876304
0.45074979
0.57753324
0.67201043
0.67554884
0.57052515
0.40166219
0.23054054
0.11296171
0.048981581
0.018980522
0.0064447471
0.0018515226
0.00055437223
0.00082101976
0.0058760549
0.091999075
0.100497
0.093445899
0.091938247
0.091603573
0.092277354
0.094640889
0.098958677
0.10377251
0.10950918
0.12097418
0.14885026
0.20024923
0.26873394
0.3487906
0.45084718
0.57758735
0.67189306
0.67524273
0.57013468
0.40130371
0.23030357
0.11284188
0.048931257
0.018962166
0.0064389509
0.001850008
0.00055402544
0.0008206674
0.0058732375
0.091990584
0.10047165
0.093433354
0.091930024
0.091598425
0.092269101
0.094618878
0.098905328
0.1037039
0.10940835
0.12081394
0.14864974
0.20008216
0.26866554
0.3488228
0.45095036
0.57764794
0.67178249
0.67494253
0.56974826
0.40094719
0.23006651
0.1127213
0.048880246
0.018943427
0.0064329938
0.0018484389
0.0005536605
0.0008202854