/*--------------------------------*- C++ -*----------------------------------*\
| =========                 |                                                 |
| \\      /  F ield         | OpenFOAM: The Open Source CFD Toolbox           |
|  \\    /   O peration     | Version:  v2012                                 |
|   \\  /    A nd           | Website:  www.openfoam.com                      |
|    \\/     M anipulation  |                                                 |
\*---------------------------------------------------------------------------*/
FoamFile
{
    version     2.0;
    format      ascii;
    class       volScalarField;
    location    "100";
    object      Ma;
}
// * * * * * * * * * * * * * * * * * * * * * * * * * * * * * * * * * * * * * //

dimensions      [0 0 0 0 0 0 0];


internalField   nonuniform List<scalar> 
24000
(
0.033815072
0.034681356
0.03492733
0.034927994
0.034932796
0.03500628
0.035220888
0.035589169
0.035791113
0.035594295
0.034587306
0.032591895
0.030313403
0.02826096
0.026412662
0.024622155
0.02275179
0.020650818
0.018265953
0.015725559
0.013196438
0.010810569
0.0086558855
0.0067755268
0.0051698161
0.0038156723
0.0026815916
0.0017355499
0.00094849118
0.0002955059
0.033842546
0.03471734
0.034961414
0.034965248
0.034976692
0.035059012
0.035284882
0.035671631
0.035890291
0.035709042
0.034718856
0.032751315
0.030496812
0.028466534
0.026642295
0.024881183
0.023050926
0.021004938
0.018687928
0.016222868
0.013770324
0.011448802
0.0093301452
0.0074457758
0.0057931037
0.0043553119
0.0031120915
0.0020434362
0.001130632
0.00035653895
0.033843031
0.034715249
0.03495786
0.034960535
0.034971828
0.035048189
0.0352632
0.035645431
0.035855631
0.035667221
0.034673538
0.032701983
0.030443995
0.028411311
0.026587047
0.024828751
0.023005277
0.020966685
0.01865042
0.016175621
0.013701325
0.011351105
0.0092051951
0.0073032388
0.0056473531
0.0042205617
0.0029994795
0.0019600867
0.001079966
0.00033911803
0.033847023
0.034719019
0.034960469
0.034963662
0.034975732
0.035050189
0.035262762
0.035645443
0.035856419
0.035669799
0.034678463
0.032708218
0.030452331
0.028422606
0.026601184
0.024845849
0.023024848
0.020989412
0.018676064
0.016202462
0.013729474
0.011381644
0.0092386553
0.007338565
0.0056821707
0.0042521801
0.0030256644
0.0019793771
0.0010916661
0.00034313657
0.033849104
0.034720596
0.034961112
0.034964192
0.03497619
0.035049078
0.035259578
0.035642532
0.035854148
0.03566892
0.034678821
0.032707176
0.030449697
0.028419017
0.026596978
0.024841302
0.023020555
0.020985356
0.018672216
0.016198584
0.013725038
0.011376176
0.0092320047
0.0073310366
0.0056744107
0.0042449228
0.0030195393
0.0019748165
0.0010888904
0.00034218502
0.033850777
0.034721799
0.03496175
0.034964939
0.034976973
0.03504871
0.035257506
0.03564093
0.035853604
0.035670131
0.034681466
0.032708205
0.030448819
0.028416989
0.026594205
0.024837963
0.023016758
0.020981197
0.018667953
0.016194553
0.013721465
0.011373166
0.0092295935
0.0073291854
0.0056730354
0.0042439336
0.0030188623
0.001974392
0.0010886686
0.00034212086
0.033851901
0.034722449
0.034962027
0.034965357
0.03497742
0.035048258
0.035255536
0.035639253
0.03585292
0.035671195
0.034683949
0.032708858
0.030447228
0.028413883
0.026590011
0.024832876
0.023010909
0.020974688
0.018661114
0.016187911
0.013715364
0.011367745
0.0092248772
0.0073251605
0.0056696821
0.0042412405
0.0030168185
0.0019729777
0.0010878502
0.00034185135
0.033852606
0.034722718
0.034962044
0.034965562
0.03497769
0.035047788
0.035253696
0.035637589
0.035852193
0.035672248
0.034686504
0.032709622
0.030445677
0.028410697
0.026585629
0.024827512
0.02300471
0.020967772
0.01865385
0.016180911
0.013709055
0.011362317
0.0092203627
0.0073215064
0.0056667963
0.0042390306
0.0030152035
0.0019718888
0.0010872289
0.0003416478
0.033852962
0.034722663
0.034961817
0.034965545
0.034977755
0.035047225
0.035251896
0.035635848
0.035851332
0.035673193
0.034689044
0.032710461
0.030444183
0.02840749
0.026581156
0.02482201
0.022998354
0.02096071
0.018646489
0.016173906
0.01370286
0.011357116
0.00921616
0.007318206
0.0056642634
0.0042371368
0.0030138425
0.0019709784
0.0010867087
0.00034147566
0.033853016
0.034722326
0.034961374
0.034965314
0.034977617
0.035046558
0.035250123
0.035634022
0.035850341
0.035674042
0.034691597
0.032711431
0.030442817
0.028404367
0.02657673
0.024816538
0.022992036
0.02095372
0.018639254
0.016167101
0.013696946
0.011352273
0.0092123702
0.0073153418
0.0056621534
0.0042356186
0.0030127842
0.0019702836
0.0010863134
0.00034134356
0.033852829
0.034721762
0.034960725
0.034964879
0.034977281
0.035045783
0.035248373
0.035632102
0.035849214
0.035674797
0.03469414
0.032712506
0.030441586
0.028401337
0.026572378
0.02481114
0.02298581
0.020946859
0.018632197
0.016160519
0.013691297
0.011347729
0.0092088994
0.0073127983
0.0056603449
0.0042343631
0.0030119348
0.0019697355
0.0010860019
0.00034123797
0.033852438
0.034721004
0.034959891
0.03496426
0.034976761
0.0350449
0.035246641
0.035630087
0.035847949
0.03567547
0.034696667
0.032713664
0.030440469
0.028398402
0.026568108
0.024805831
0.022979693
0.020940134
0.018625298
0.016154101
0.013685804
0.011343327
0.0092055564
0.0073103691
0.0056586373
0.0042331931
0.003011153
0.0019692349
0.0010857174
0.00034114072
0.033851873
0.034720081
0.034958902
0.034963469
0.034976072
0.035043915
0.035244897
0.035627985
0.035846577
0.035676072
0.034699196
0.032714901
0.030439451
0.028395564
0.026563932
0.024800628
0.022973702
0.020933557
0.018618559
0.016147832
0.013680433
0.011339017
0.0092022755
0.0073079787
0.0056569513
0.0042320336
0.0030103747
0.001968734
0.0010854312
0.00034104231
0.03385116
0.034719014
0.034957777
0.034962533
0.03497523
0.035042836
0.035243141
0.035625828
0.035845132
0.035676599
0.034701729
0.032716221
0.03043852
0.028392814
0.026559849
0.024795531
0.022967833
0.020927117
0.018611955
0.016141673
0.013675133
0.011334737
0.0091989922
0.0073055621
0.005655227
0.0042308327
0.0030095592
0.0019682047
0.0010851274
0.00034093786
0.033850317
0.03471782
0.034956533
0.034961466
0.034974251
0.035041673
0.035241397
0.035623639
0.035843632
0.035677065
0.034704263
0.032717617
0.030437667
0.028390145
0.026555858
0.024790543
0.022962095
0.02092083
0.018605521
0.016135686
0.01367
0.011330611
0.009195846
0.0073032627
0.0056535981
0.0042297052
0.0030087964
0.0019677095
0.0010848421
0.00034083897
0.033849362
0.034716515
0.034955183
0.034960282
0.034973149
0.035040438
0.035239669
0.035621426
0.035842077
0.035677492
0.034706812
0.03271906
0.030436873
0.02838754
0.026551942
0.024785649
0.022956472
0.020914686
0.018599257
0.016129887
0.013665061
0.011326679
0.009192886
0.0073011344
0.0056521199
0.0042287037
0.0030081316
0.001967283
0.0010845964
0.00034075297
0.033848308
0.03471511
0.034953737
0.034958991
0.034971935
0.035039143
0.035237958
0.035619191
0.035840456
0.035677879
0.034709369
0.032720529
0.030436132
0.028384973
0.026548076
0.024780823
0.022950943
0.020908665
0.018593151
0.016124274
0.013660326
0.011322956
0.0091901255
0.0072991876
0.0056507973
0.0042278281
0.0030075617
0.001966921
0.0010843872
0.00034067858
0.033847164
0.034713612
0.034952203
0.034957602
0.034970617
0.035037783
0.035236255
0.035616925
0.035838775
0.035678221
0.034711897
0.032722015
0.030435406
0.028382417
0.026544229
0.02477603
0.022945463
0.020902714
0.018587131
0.016118753
0.013655681
0.011319313
0.0091874368
0.0072973019
0.0056495256
0.0042269934
0.0030070228
0.0019665807
0.0010841907
0.00034060842
0.033845938
0.034712031
0.034950587
0.034956123
0.034969205
0.035036367
0.035234553
0.035614625
0.035837041
0.035678522
0.034714389
0.032723506
0.03043467
0.02837985
0.026540385
0.024771249
0.022940012
0.020896812
0.018581181
0.016113316
0.013651125
0.011315761
0.0091848336
0.007295493
0.0056483192
0.0042262108
0.0030065227
0.0019662663
0.0010840085
0.00034054279
0.033844628
0.034710371
0.034948899
0.034954565
0.034967707
0.035034899
0.035232843
0.035612282
0.035835252
0.035678781
0.034716847
0.03272497
0.030433909
0.028377261
0.026536519
0.024766457
0.022934564
0.020890928
0.018575261
0.016107913
0.013646599
0.011312229
0.0091822394
0.0072936846
0.0056471085
0.0042254221
0.0030060168
0.0019659476
0.0010838239
0.00034047635
0.033843245
0.034708634
0.034947143
0.034952936
0.034966133
0.035033381
0.035231105
0.035609867
0.035833393
0.035678985
0.034719254
0.032726399
0.03043311
0.028374646
0.026532624
0.024761649
0.022929116
0.020885063
0.01856938
0.016102564
0.013642133
0.011308759
0.0091797029
0.0072919249
0.0056459347
0.0042246592
0.0030055273
0.0019656382
0.0010836436
0.00034041101
0.033841781
0.034706811
0.034945325
0.034951245
0.034964489
0.035031812
0.035229332
0.035607401
0.035831457
0.035679132
0.034721616
0.032727803
0.030432274
0.028371984
0.026528687
0.024756813
0.022923647
0.020879187
0.018563496
0.016097211
0.013637662
0.01130528
0.0091771565
0.0072901563
0.0056447549
0.004223893
0.0030050369
0.0019653293
0.0010834644
0.00034034627
0.033840251
0.034704913
0.034943448
0.034949501
0.034962773
0.035030192
0.035227516
0.035604878
0.035829462
0.03567923
0.03472394
0.032729173
0.030431399
0.028369265
0.026524699
0.024751936
0.022918151
0.020873302
0.018557622
0.016091885
0.013633229
0.011301845
0.0091746559
0.0072884308
0.0056436121
0.0042231561
0.0030045675
0.0019650339
0.0010832923
0.0003402837
0.033838659
0.034702948
0.034941513
0.034947712
0.034960998
0.035028521
0.035225646
0.035602295
0.035827409
0.03567927
0.034726206
0.032730487
0.030430462
0.028366482
0.02652065
0.024747009
0.022912615
0.020867392
0.018551737
0.016086558
0.013628797
0.01129841
0.0091721515
0.0072866988
0.005642462
0.0042224128
0.0030040933
0.0019647356
0.0010831187
0.00034022066
0.033837005
0.034700917
0.034939507
0.034945879
0.034959173
0.035026797
0.03522371
0.035599646
0.03582529
0.035679246
0.034728418
0.032731742
0.030429461
0.028363633
0.026516546
0.024742034
0.022907044
0.020861469
0.018545864
0.016081267
0.01362442
0.01129504
0.009169713
0.0072850278
0.005641363
0.004221709
0.0030036474
0.0019644553
0.0010829547
0.00034016053
0.033835291
0.034698822
0.034937443
0.034944
0.034957299
0.035025022
0.0352217
0.035596926
0.035823093
0.035679161
0.034730584
0.032732958
0.030428386
0.028360708
0.026512368
0.024736992
0.022901416
0.020855498
0.018539954
0.016075943
0.013620012
0.01129164
0.0091672484
0.0072833344
0.0056402472
0.0042209937
0.0030031945
0.0019641716
0.0010827897
0.0003401004
0.033833516
0.034696663
0.034935327
0.03494208
0.03495538
0.035023192
0.035219609
0.035594131
0.03582082
0.035679014
0.034732683
0.03273411
0.030427237
0.028357701
0.026508108
0.024731876
0.022895727
0.020849482
0.01853402
0.016070619
0.013615621
0.011288269
0.0091648178
0.0072816755
0.0056391617
0.0042203024
0.0030027589
0.0019638988
0.0010826303
0.00034004193
0.03383168
0.03469444
0.034933159
0.034940121
0.034953424
0.035021309
0.035217432
0.035591223
0.035818485
0.035678797
0.034734717
0.032735187
0.030426023
0.028354615
0.02650376
0.024726678
0.022889964
0.020843406
0.018528043
0.016065265
0.01361121
0.011284882
0.0091623725
0.0072800023
0.0056380635
0.0042196008
0.0030023156
0.0019636212
0.0010824683
0.00033998266
0.033829788
0.034692158
0.034930945
0.034938129
0.034951435
0.035019367
0.035215163
0.035588236
0.035816087
0.035678513
0.034736698
0.032736193
0.030424729
0.028351449
0.026499333
0.024721406
0.02288414
0.020837288
0.018522051
0.016059929
0.013606846
0.011281563
0.0091600054
0.0072784075
0.0056370353
0.0042189566
0.0030019153
0.0019633721
0.0010823221
0.0003399283
0.033827837
0.034689816
0.034928683
0.034936103
0.034949415
0.035017371
0.035212809
0.035585173
0.035813616
0.035678166
0.03473861
0.032737154
0.03042335
0.028348193
0.02649482
0.024716046
0.022878233
0.020831097
0.018515995
0.016054539
0.01360244
0.011278213
0.0091576199
0.0072768061
0.0056360109
0.0042183226
0.0030015278
0.0019631351
0.0010821843
0.00033987713
0.033825817
0.03468741
0.034926366
0.034934034
0.034947358
0.035015321
0.035210365
0.03558203
0.035811056
0.035677746
0.034740449
0.032738034
0.030421877
0.028344837
0.026490208
0.02471059
0.022872238
0.020824828
0.018509881
0.016049113
0.013598018
0.011274864
0.0091552465
0.0072752222
0.0056350046
0.0042177044
0.0030011522
0.0019629057
0.0010820505
0.0003398271
0.033823733
0.034684937
0.034923996
0.034931922
0.034945266
0.035013219
0.035207837
0.035578808
0.035808433
0.035677251
0.034742226
0.03273883
0.030420315
0.028341383
0.026485496
0.024705036
0.022866146
0.020818469
0.018503684
0.016043614
0.013593529
0.011271455
0.009152819
0.0072735914
0.00563396
0.0042170571
0.0030007562
0.0019626633
0.0010819098
0.0003397749
0.033821581
0.034682392
0.034921573
0.034929763
0.034943138
0.035011068
0.035205232
0.035575513
0.03580575
0.035676696
0.034743932
0.032739563
0.030418689
0.028337839
0.026480696
0.024699399
0.02285998
0.020812046
0.018497443
0.016038094
0.013589047
0.011268075
0.0091504326
0.0072720065
0.0056329587
0.0042164463
0.0030003879
0.0019624396
0.0010817793
0.00033972589
0.033819373
0.034679775
0.034919098
0.034927556
0.034940973
0.035008863
0.035202551
0.035572136
0.035802993
0.035676074
0.034745568
0.032740242
0.030416977
0.028334204
0.026475802
0.024693667
0.02285372
0.020805526
0.018491101
0.016032472
0.013584464
0.011264599
0.009147964
0.0072703555
0.0056319087
0.0042158024
0.0029999992
0.001962205
0.0010816443
0.00033967593
0.03381711
0.034677097
0.034916568
0.034925299
0.034938769
0.035006608
0.035199795
0.035568658
0.035800156
0.035675381
0.03474714
0.032740843
0.030415172
0.028330478
0.02647081
0.024687839
0.022847368
0.020798918
0.018484681
0.016026785
0.013579831
0.011261088
0.0091454735
0.0072686922
0.0056308521
0.0042151549
0.0029996083
0.0019619685
0.0010815078
0.0003396254
0.033814793
0.03467436
0.034913985
0.034922992
0.034936526
0.035004306
0.035196958
0.03556511
0.035797251
0.035674623
0.034748637
0.032741363
0.030413276
0.02832666
0.02646572
0.02468191
0.022840917
0.020792212
0.018478162
0.016020998
0.013575096
0.011257475
0.0091428833
0.0072669372
0.005629717
0.0042144449
0.0029991712
0.0019617016
0.0010813546
0.00033956957
0.033812421
0.034671566
0.034911336
0.034920632
0.034934242
0.035001957
0.035194055
0.035561496
0.035794289
0.035673801
0.034750063
0.032741833
0.030411296
0.028322755
0.026460546
0.024675903
0.022834393
0.020785444
0.018471596
0.016015185
0.013570356
0.011253874
0.0091403159
0.0072652078
0.0056286042
0.0042137512
0.0029987446
0.00196144
0.0010812034
0.00033951413
0.033809996
0.034668714
0.034908619
0.034918222
0.034931917
0.03499956
0.035191088
0.035557819
0.035791258
0.035672913
0.034751428
0.032742241
0.030409253
0.028318759
0.02645528
0.024669809
0.022827778
0.020778581
0.018464928
0.01600926
0.0135655
0.01125016
0.0091376446
0.0072633905
0.0056274232
0.0042130085
0.0029982856
0.0019611597
0.0010810433
0.00033945639
0.033807516
0.034665804
0.034905848
0.034915755
0.034929542
0.034997118
0.035188058
0.035554079
0.035788151
0.035671961
0.034752722
0.032742574
0.030407121
0.028314666
0.026449919
0.024663623
0.022821077
0.020771637
0.018458191
0.016003283
0.01356061
0.011246428
0.0091349703
0.0072615793
0.0056262515
0.0042122751
0.0029978337
0.0019608835
0.0010808851
0.00033939908
0.03380498
0.034662836
0.034903024
0.034913228
0.034927124
0.034994631
0.035184969
0.035550278
0.035784973
0.035670947
0.03475395
0.03274283
0.030404899
0.028310478
0.026444467
0.024657346
0.022814282
0.020764602
0.018451363
0.015997216
0.013555628
0.011242604
0.0091322044
0.0072596827
0.0056250064
0.0042114828
0.0029973385
0.0019605789
0.0010807113
0.00033933682
0.03380238
0.034659808
0.034900146
0.034910642
0.034924666
0.034992099
0.035181821
0.035546385
0.035781739
0.035669868
0.034755124
0.032743047
0.030402597
0.028306207
0.026438938
0.024650997
0.022807423
0.020757515
0.018444504
0.015991141
0.013550663
0.011238817
0.0091294866
0.0072578357
0.0056238039
0.0042107232
0.0029968657
0.0019602874
0.0010805437
0.00033927627
0.033799723
0.034656719
0.034897217
0.034908002
0.034922157
0.034989522
0.035178615
0.035542425
0.035778439
0.035668727
0.034756239
0.032743195
0.030400209
0.028301852
0.026433321
0.024644563
0.022800478
0.020750335
0.018437543
0.015984954
0.013545581
0.011234913
0.009126663
0.0072558996
0.0056225333
0.0042099156
0.0029963622
0.0019599791
0.0010803688
0.00033921403
0.033796996
0.034653562
0.034894234
0.034905311
0.034919606
0.034986901
0.035175357
0.035538406
0.035775066
0.035667519
0.034757296
0.032743265
0.030397752
0.028297413
0.026427613
0.02463804
0.022793449
0.02074308
0.018430518
0.01597872
0.013540471
0.011231
0.0091238432
0.007253976
0.0056212777
0.0042091217
0.0029958689
0.0019596767
0.0010801965
0.00033915242
0.033794214
0.034650328
0.034891198
0.03490257
0.034917012
0.034984236
0.035172047
0.035534329
0.035771618
0.035666242
0.034758295
0.032743271
0.030395208
0.02829288
0.026421811
0.024631426
0.02278633
0.020735733
0.018423401
0.015972394
0.013535266
0.011226988
0.0091209254
0.00725196
0.0056199419
0.0042082632
0.0029953278
0.001959343
0.0010800071
0.00033908543
0.033791379
0.034647036
0.034888108
0.034899778
0.034914376
0.034981526
0.035168687
0.035530194
0.035768113
0.035664899
0.034759231
0.032743225
0.030392583
0.028288265
0.026415934
0.024624744
0.02277915
0.020728339
0.018416257
0.015966066
0.013530085
0.011223023
0.0091180645
0.0072500018
0.0056186558
0.0042074428
0.0029948131
0.0019590248
0.0010798252
0.00033902044
0.03378849
0.034643686
0.034884966
0.034896936
0.034911697
0.034978762
0.035165278
0.035526001
0.03576454
0.035663492
0.03476011
0.032743109
0.030389874
0.028283563
0.026409976
0.024617981
0.022771889
0.020720857
0.018409017
0.01595963
0.013524791
0.011218943
0.0091150991
0.0072479549
0.0056173014
0.0042065743
0.0029942673
0.0019586896
0.0010796358
0.00033895377
0.033785547
0.034640279
0.034881772
0.034894045
0.034908975
0.034975954
0.035161822
0.035521722
0.035760892
0.035662013
0.034760922
0.032742911
0.030387074
0.028278768
0.02640393
0.024611134
0.022764547
0.020713301
0.018401715
0.015953151
0.01351947
0.011214855
0.0091121381
0.0072459208
0.0056159621
0.0042057192
0.0029937317
0.0019583602
0.0010794489
0.00033888768
0.033782551
0.034636816
0.034878526
0.034891104
0.034906208
0.034973102
0.035158314
0.035517365
0.035757166
0.035660462
0.034761661
0.032742658
0.0303842
0.028273879
0.026397794
0.024604199
0.022757117
0.020705657
0.018394324
0.015946581
0.013514056
0.011210669
0.0091090801
0.0072437948
0.0056145424
0.0042047992
0.0029931477
0.0019579989
0.0010792445
0.00033881602
0.033779502
0.034633297
0.034875203
0.034888113
0.034903396
0.034970208
0.035154759
0.035512947
0.035753381
0.035658845
0.034762336
0.032742342
0.030381255
0.028268914
0.026391587
0.024597203
0.022749635
0.02069797
0.01838691
0.015940016
0.013508673
0.011206538
0.0091060867
0.0072417343
0.0056131796
0.0042039235
0.0029925949
0.0019576566
0.0010790496
0.00033874708
0.033776391
0.03462972
0.034871826
0.034885072
0.034900539
0.03496727
0.035151164
0.035508465
0.035749521
0.035657157
0.034762936
0.032741951
0.030378225
0.028263869
0.026385297
0.024590128
0.022742071
0.020690192
0.018379396
0.015933338
0.013503172
0.011202288
0.0091029858
0.0072395834
0.0056117482
0.0042030001
0.0029920122
0.0019572984
0.0010788481
0.00033867675
0.033773221
0.034626087
0.034868398
0.034881982
0.034897638
0.034964288
0.035147531
0.035503915
0.035745578
0.03565539
0.034763449
0.032741476
0.0303751
0.028258733
0.02637892
0.024582968
0.022734422
0.020682333
0.018371812
0.015926608
0.013497636
0.011198021
0.0090998817
0.0072374387
0.0056103264
0.004202086
0.0029914364
0.0019569438
0.0010786479
0.00033860661
0.033769985
0.03462239
0.034864917
0.034878836
0.034894691
0.03496127
0.035143861
0.035499296
0.035741548
0.035653543
0.034763872
0.032740941
0.030371879
0.028253499
0.026372451
0.024575721
0.022726681
0.020674375
0.018364131
0.01591978
0.013491997
0.011193647
0.0090966694
0.0072351913
0.0056088146
0.0042010988
0.002990806
0.0019565531
0.0010784278
0.00033853016
0.033766689
0.034618626
0.034861387
0.034875629
0.034891702
0.034958216
0.035140159
0.035494583
0.035737449
0.035651622
0.034764202
0.032740329
0.030368586
0.028248183
0.026365908
0.024568421
0.022718884
0.020666361
0.01835642
0.01591295
0.013486384
0.01118932
0.0090935158
0.0072330034
0.005607354
0.004200151
0.0029902028
0.0019561784
0.0010782153
0.00033845576
0.033763339
0.034614792
0.034857807
0.034872367
0.034888665
0.034955123
0.035136404
0.035489777
0.035733262
0.03564962
0.034764435
0.032739637
0.030365218
0.02824278
0.026359283
0.024561051
0.022711007
0.020658246
0.018348609
0.015906011
0.013480655
0.011184878
0.0090902564
0.0072307258
0.0056058243
0.0041991543
0.0029895682
0.0019557866
0.0010779953
0.00033837967
0.033759939
0.034610904
0.034854178
0.034869058
0.03488558
0.034951989
0.035132598
0.035484896
0.035728984
0.035647537
0.034764559
0.032738876
0.030361758
0.028237283
0.026352569
0.0245536
0.022703051
0.020650058
0.018340735
0.015899024
0.013474898
0.011180425
0.0090870002
0.0072284604
0.0056043097
0.0041981714
0.0029889441
0.0019554008
0.0010777781
0.00033830421
0.033756487
0.034606961
0.034850498
0.034865703
0.034882453
0.034948813
0.035128742
0.035479941
0.035724617
0.035645375
0.034764567
0.032738048
0.030358208
0.028231694
0.026345766
0.024546064
0.02269501
0.020641783
0.018332773
0.015891947
0.013469045
0.011175871
0.0090836422
0.0072260981
0.00560271
0.0041971194
0.0029882683
0.0019549807
0.0010775419
0.00033822272
0.033752987
0.034602968
0.034846768
0.034862302
0.034879275
0.034945594
0.035124839
0.035474909
0.035720169
0.035643121
0.034764505
0.032737146
0.030354579
0.028226034
0.0263389
0.024538469
0.02268692
0.020633468
0.018324788
0.015884869
0.013463215
0.01117136
0.0090803375
0.00722379
0.0056011568
0.004196103
0.0029876169
0.001954575
0.0010773125
0.00033814305
0.033749439
0.034598924
0.034842989
0.034858854
0.034876054
0.034942331
0.035120887
0.035469802
0.035715627
0.035640774
0.034764372
0.032736168
0.030350871
0.028220301
0.026331958
0.024530801
0.022678756
0.020625073
0.018316711
0.015877686
0.013457273
0.011166737
0.0090769304
0.0072213952
0.0055995371
0.0041950397
0.0029869356
0.0019541529
0.0010770761
0.00033806183
0.033745832
0.03459483
0.034839152
0.034855359
0.03487279
0.034939024
0.03511689
0.035464582
0.035710977
0.035638329
0.034764152
0.032735131
0.030347096
0.028214486
0.026324936
0.024523058
0.02267052
0.020616611
0.018308575
0.01587046
0.013451303
0.011162102
0.009073524
0.0072190098
0.0055979299
0.0041939882
0.0029862633
0.0019537361
0.001076842
0.00033798117
0.033742175
0.034590687
0.034835246
0.034851816
0.034869481
0.034935672
0.035112851
0.035459263
0.035706234
0.035635779
0.034763845
0.032734009
0.030343232
0.028208584
0.026317829
0.024515233
0.022662203
0.020608067
0.018300355
0.015863144
0.013445239
0.011157368
0.0090700172
0.0072165286
0.0055962384
0.004192868
0.0029855395
0.0019532851
0.0010765889
0.00033789449
0.033738457
0.034586487
0.034831292
0.034848226
0.034866126
0.034932278
0.035108776
0.035453857
0.035701389
0.035633121
0.034763452
0.032732804
0.030339288
0.028202608
0.026310657
0.02450735
0.022653836
0.020599484
0.018292112
0.015855828
0.013439197
0.011152674
0.0090665586
0.0072140963
0.0055945886
0.0041917796
0.0029848375
0.0019528466
0.0010763418
0.00033780935
0.033734687
0.034582231
0.03482729
0.034844588
0.034862723
0.034928841
0.035104664
0.035448362
0.03569644
0.035630354
0.034762964
0.03273152
0.030335262
0.028196553
0.026303416
0.024499398
0.022645398
0.020590824
0.018283781
0.015848414
0.01343305
0.011147875
0.0090630047
0.0072115828
0.005592876
0.0041906464
0.0029841062
0.0019523919
0.0010760874
0.00033772246
0.033730873
0.03457791
0.034823243
0.034840905
0.034859273
0.034925361
0.035100552
0.035442774
0.035691364
0.035627472
0.034762379
0.032730162
0.03033115
0.028190418
0.026296101
0.024491375
0.022636892
0.020582102
0.018275398
0.015840962
0.013426881
0.011143069
0.009059456
0.0072090821
0.0055911784
0.0041895269
0.0029833856
0.0019519436
0.001075836
0.00033763638
0.033727017
0.034573543
0.034819153
0.034837168
0.034855782
0.034921844
0.0350964
0.035437085
0.035686187
0.035624466
0.034761691
0.032728708
0.030326969
0.028184201
0.026288709
0.024483277
0.022628312
0.020573304
0.018266938
0.015833429
0.013420629
0.011138176
0.0090558186
0.007206497
0.0055894064
0.0041883466
0.0029826191
0.0019514647
0.0010755676
0.00033754484
0.03372312
0.034569132
0.03481502
0.034833373
0.034852251
0.034918288
0.03509219
0.035431264
0.035680886
0.03562134
0.034760898
0.032727159
0.030322717
0.028177922
0.026281258
0.024475128
0.022619687
0.02056447
0.018258458
0.015825898
0.013414399
0.011133324
0.0090522322
0.0072039637
0.0055876793
0.0041872012
0.0029818772
0.0019510006
0.0010753065
0.00033745535
0.033719184
0.034564679
0.034810843
0.034829535
0.034848683
0.034914688
0.035087923
0.035425335
0.035675462
0.035618087
0.034759995
0.03272553
0.030318382
0.028171575
0.02627374
0.024466914
0.022610993
0.020555559
0.018249888
0.015818264
0.01340806
0.011128362
0.0090485454
0.0072013452
0.0055858863
0.0041860088
0.0029811046
0.0019505194
0.0010750377
0.00033736403
0.033715205
0.034560184
0.034806623
0.034825657
0.034845075
0.03491104
0.035083594
0.035419301
0.035669909
0.0356147
0.034758971
0.032723802
0.030313962
0.028165157
0.02626615
0.024458632
0.022602232
0.020546586
0.018241264
0.015810589
0.013401694
0.01112339
0.0090448605
0.0071987371
0.0055841069
0.0041848294
0.0029803424
0.0019500445
0.001074772
0.00033727352
0.033711179
0.034555651
0.03480236
0.034821739
0.03484142
0.03490735
0.035079203
0.03541316
0.035664232
0.035611179
0.034757822
0.032721966
0.030309456
0.028158661
0.026258491
0.024450283
0.022593399
0.020537535
0.018232561
0.01580283
0.013395239
0.011118321
0.0090410774
0.007196035
0.0055822444
0.0041835819
0.0029795288
0.0019495353
0.0010744872
0.00033717699
0.033707114
0.034551076
0.034798039
0.034817781
0.03483772
0.034903616
0.035074744
0.035406913
0.035658426
0.035607523
0.034756545
0.032720025
0.030304881
0.028152103
0.026250779
0.02444189
0.022584525
0.020528453
0.018223845
0.015795081
0.013388815
0.011113303
0.0090373544
0.0071933929
0.0055804334
0.0041823741
0.0029787429
0.0019490427
0.0010742106
0.00033708266
0.033702995
0.034546449
0.034793662
0.034813784
0.034833974
0.034899839
0.035070219
0.035400534
0.035652473
0.035603725
0.034755135
0.032717995
0.03030024
0.028145478
0.026243004
0.024433441
0.022575588
0.020519294
0.018215044
0.015787234
0.013382284
0.011108175
0.0090335286
0.0071906622
0.0055785528
0.004181116
0.0029779237
0.0019485313
0.0010739254
0.00033698626
0.033698843
0.034541775
0.034789246
0.034809748
0.034830187
0.034896021
0.03506563
0.035394018
0.035646395
0.035599785
0.034753588
0.03271585
0.030295515
0.028138782
0.026235163
0.024424932
0.022566592
0.020510073
0.018206196
0.01577936
0.013375739
0.011103047
0.0090297196
0.0071879572
0.0055767002
0.0041798835
0.0029771249
0.0019480332
0.0010736473
0.00033689198
0.033694659
0.034537052
0.034784791
0.034805673
0.034826363
0.03489216
0.035060976
0.035387389
0.035640171
0.0355957
0.034751901
0.032713585
0.030290705
0.028132014
0.026227253
0.024416354
0.022557524
0.020500778
0.018197272
0.015771402
0.013369102
0.011097819
0.0090258063
0.0071851512
0.0055747576
0.004178577
0.0029762701
0.0019474977
0.0010733483
0.00033679105
0.033690444
0.03453229
0.034780295
0.034801556
0.0348225
0.034888253
0.035056253
0.035380647
0.035633811
0.035591474
0.034750071
0.032711217
0.030285821
0.028125196
0.026219297
0.024407733
0.02254842
0.020491459
0.01818834
0.015763458
0.013362501
0.011092646
0.0090219551
0.0071824059
0.0055728659
0.0041773085
0.002975441
0.0019469768
0.001073056
0.0003366918
0.033686196
0.034527489
0.034775763
0.034797399
0.034818597
0.034884301
0.035051463
0.035373792
0.035627309
0.035587102
0.034748101
0.032708747
0.03028086
0.028118322
0.026211288
0.024399054
0.022539255
0.020482069
0.018179323
0.015755414
0.013355788
0.011087355
0.0090179925
0.007179563
0.0055708967
0.0041759835
0.0029745741
0.0019464344
0.0010727539
0.00033659017
0.033681915
0.034522652
0.034771192
0.034793186
0.034814655
0.034880304
0.035046603
0.035366817
0.035620672
0.035582589
0.034745988
0.032706155
0.030275836
0.02811139
0.026203219
0.024390315
0.022530031
0.020472626
0.018170265
0.015747344
0.013349068
0.011082075
0.009014054
0.0071767518
0.00556896
0.0041746869
0.0029737292
0.001945906
0.001072459
0.00033649064
0.033677592
0.034517777
0.03476658
0.034788924
0.034810673
0.034876261
0.035041674
0.035359701
0.035613903
0.035577937
0.034743728
0.032703441
0.030270732
0.028104392
0.026195085
0.024381508
0.022520738
0.020463111
0.018161133
0.015739196
0.013342263
0.011076702
0.0090100191
0.0071738466
0.0055669389
0.0041733208
0.0029728316
0.0019453425
0.0010721447
0.00033638497
0.033673235
0.034512862
0.034761925
0.034784621
0.03480665
0.034872172
0.035036676
0.035352472
0.035606988
0.035573144
0.034741329
0.032700626
0.030265554
0.028097341
0.026186905
0.02437266
0.022511411
0.020453573
0.018151998
0.015731072
0.013335508
0.011071401
0.0090060666
0.0071710232
0.0055649889
0.0041720102
0.0029719736
0.0019448033
0.0010718426
0.00033628275
0.033668827
0.034507896
0.034757221
0.03478028
0.034802588
0.034868033
0.03503161
0.035345142
0.035599954
0.03556822
0.034738796
0.0326977
0.030260298
0.028090233
0.026178671
0.024363754
0.02250202
0.020443961
0.018142777
0.015722847
0.01332864
0.011065983
0.0090020037
0.0071681039
0.0055629637
0.0041706458
0.0029710805
0.0019442447
0.0010715321
0.00033617863
0.033664386
0.034502883
0.034752452
0.034775899
0.034798484
0.034863842
0.035026477
0.035337715
0.035592792
0.035563173
0.034736124
0.032694653
0.03025496
0.028083061
0.026170382
0.024354786
0.022492567
0.020434293
0.018133509
0.01571459
0.013321757
0.011060567
0.0089979557
0.0071652079
0.0055609637
0.0041693041
0.0029702051
0.0019436973
0.0010712272
0.00033607605
0.033659908
0.034497805
0.034747635
0.034771476
0.034794332
0.034859602
0.03502127
0.035330192
0.035585512
0.035557997
0.034733322
0.032691489
0.030249545
0.028075823
0.02616203
0.024345751
0.022483043
0.020424547
0.01812416
0.015706246
0.013314777
0.011055043