/*--------------------------------*- C++ -*----------------------------------*\
| =========                 |                                                 |
| \\      /  F ield         | OpenFOAM: The Open Source CFD Toolbox           |
|  \\    /   O peration     | Version:  v2012                                 |
|   \\  /    A nd           | Website:  www.openfoam.com                      |
|    \\/     M anipulation  |                                                 |
\*---------------------------------------------------------------------------*/
FoamFile
{
    version     2.0;
    format      ascii;
    class       volScalarField;
    location    "100";
    object      nut;
}
// * * * * * * * * * * * * * * * * * * * * * * * * * * * * * * * * * * * * * //

dimensions      [0 2 -1 0 0 0 0];


internalField   nonuniform List<scalar> 
24000
(
5.221663e-05
9.6786449e-06
4.1775593e-05
4.9888586e-05
5.7135596e-05
2.1163059e-05
7.1018635e-06
5.4758823e-06
4.3234246e-06
3.2037578e-06
2.4246018e-06
2.0104383e-06
1.938572e-06
1.8338294e-06
1.5705054e-06
1.2469537e-06
9.2927852e-07
5.7792655e-07
3.5669217e-07
2.1272739e-07
1.1742441e-07
4.8796146e-08
1.5941002e-08
4.2121536e-09
9.0841489e-10
1.5635972e-10
2.0144958e-11
2.118629e-12
7.502703e-13
8.0991676e-13
5.2217454e-05
9.7379227e-06
5.048997e-05
5.8930199e-05
5.7070839e-05
1.4616198e-05
6.6703623e-06
4.9651915e-06
4.0358656e-06
3.0178129e-06
2.4161387e-06
2.0033557e-06
1.9307795e-06
1.8283982e-06
1.5702177e-06
1.2501881e-06
9.5008868e-07
5.9834948e-07
3.7038632e-07
2.2169917e-07
1.220283e-07
4.9773074e-08
1.6229283e-08
4.2926888e-09
9.2834071e-10
1.6042035e-10
2.0950109e-11
2.4656122e-12
1.0878759e-12
1.1826305e-12
5.2220359e-05
9.9128952e-06
5.0520898e-05
6.0379001e-05
5.6961629e-05
2.1742131e-05
7.1037939e-06
5.2200577e-06
4.2737942e-06
3.1837821e-06
2.4154852e-06
2.0022227e-06
1.9301705e-06
1.8309808e-06
1.5755822e-06
1.2580018e-06
9.6057312e-07
6.0056943e-07
3.7274614e-07
2.2396065e-07
1.244467e-07
5.2043909e-08
1.7092283e-08
4.5313396e-09
9.7929994e-10
1.6883973e-10
2.188651e-11
2.4431378e-12
9.8329942e-13
1.0715742e-12
5.2233608e-05
1.0005981e-05
5.0542294e-05
6.0381949e-05
5.6913236e-05
2.3325455e-05
7.1851835e-06
5.2498615e-06
4.2848476e-06
3.1779598e-06
2.4147825e-06
2.0014703e-06
1.9290851e-06
1.8291297e-06
1.5747008e-06
1.2573475e-06
9.5997146e-07
6.0238699e-07
3.7331861e-07
2.2391724e-07
1.2416996e-07
5.1625129e-08
1.6911559e-08
4.4772557e-09
9.6715699e-10
1.667629e-10
2.1645559e-11
2.4440635e-12
1.0052574e-12
1.096365e-12
5.2247752e-05
1.0089112e-05
5.0561441e-05
6.0385259e-05
5.6876256e-05
2.4734475e-05
7.233286e-06
5.2712823e-06
4.2992988e-06
3.1844628e-06
2.4139098e-06
2.0003899e-06
1.9278668e-06
1.8278627e-06
1.5736252e-06
1.2567117e-06
9.5975697e-07
6.0207738e-07
3.7319394e-07
2.2389603e-07
1.2419744e-07
5.1704229e-08
1.6944492e-08
4.4867495e-09
9.6922023e-10
1.6710601e-10
2.1682961e-11
2.4418704e-12
9.995446e-13
1.0900927e-12
5.2262393e-05
1.014597e-05
5.0578862e-05
6.0388009e-05
5.6846503e-05
2.5886115e-05
7.2598414e-06
5.2740625e-06
4.3024413e-06
3.1870555e-06
2.4130967e-06
1.9993031e-06
1.9266562e-06
1.8265799e-06
1.5724206e-06
1.2558589e-06
9.5921114e-07
6.0179462e-07
3.7301255e-07
2.2376789e-07
1.2410717e-07
5.1636725e-08
1.6918359e-08
4.4792225e-09
9.6753868e-10
1.668142e-10
2.1645943e-11
2.4386182e-12
9.9894312e-13
1.0894826e-12
5.2277322e-05
1.0187666e-05
5.0595013e-05
6.0390293e-05
5.6821603e-05
2.6872099e-05
7.2854282e-06
5.2779891e-06
4.3076623e-06
3.1922277e-06
2.4123629e-06
1.9982382e-06
1.9254764e-06
1.8253424e-06
1.5712613e-06
1.2550492e-06
9.5870502e-07
6.0137895e-07
3.7279055e-07
2.2363803e-07
1.2402883e-07
5.1585559e-08
1.6899515e-08
4.4739587e-09
9.6638388e-10
1.6661535e-10
2.162e-11
2.4353175e-12
9.9728571e-13
1.0876724e-12
5.2292485e-05
1.0218589e-05
5.0610203e-05
6.0392204e-05
5.6799996e-05
2.7746449e-05
7.3107543e-06
5.2836483e-06
4.3143718e-06
3.1985197e-06
2.4117421e-06
1.9972235e-06
1.9243277e-06
1.8241501e-06
1.5701514e-06
1.2542801e-06
9.5823173e-07
6.0097999e-07
3.7258729e-07
2.2352154e-07
1.2395648e-07
5.1531339e-08
1.6878993e-08
4.4681716e-09
9.651157e-10
1.6639877e-10
2.1592455e-11
2.4323317e-12
9.9609892e-13
1.0863621e-12
5.2307835e-05
1.0242818e-05
5.0624656e-05
6.0393861e-05
5.6781153e-05
2.8546145e-05
7.3366025e-06
5.2911949e-06
4.322562e-06
3.2057286e-06
2.4112324e-06
1.9962608e-06
1.9232093e-06
1.8230007e-06
1.5690954e-06
1.2535614e-06
9.5780295e-07
6.006044e-07
3.724115e-07
2.23429e-07
1.2390069e-07
5.1484646e-08
1.6861283e-08
4.463218e-09
9.6404491e-10
1.6621873e-10
2.1569966e-11
2.4299611e-12
9.9516655e-13
1.0853147e-12
5.2323341e-05
1.0262639e-05
5.0638537e-05
6.0395358e-05
5.6765107e-05
2.9276847e-05
7.3626486e-06
5.3002029e-06
4.3316559e-06
3.2134675e-06
2.4108234e-06
1.9953472e-06
1.922119e-06
1.8218906e-06
1.5680881e-06
1.2528858e-06
9.5741143e-07
6.0025728e-07
3.7226271e-07
2.2335912e-07
1.2386069e-07
5.1445187e-08
1.6846197e-08
4.4590193e-09
9.6314919e-10
1.6607089e-10
2.1551956e-11
2.4281908e-12
9.9452623e-13
1.0845747e-12
5.2338981e-05
1.0279654e-05
5.0651972e-05
6.0396753e-05
5.6751907e-05
2.9932073e-05
7.3889099e-06
5.3104619e-06
4.3411667e-06
3.2215568e-06
2.4105008e-06
1.9944793e-06
1.9210556e-06
1.8208157e-06
1.5671231e-06
1.2522453e-06
9.5704881e-07
5.999327e-07
3.7213496e-07
2.2330792e-07
1.238349e-07
5.1413647e-08
1.6834176e-08
4.4557243e-09
9.6246383e-10
1.6596132e-10
2.1539108e-11
2.4269881e-12
9.940851e-13
1.0840424e-12
5.2354738e-05
1.0294873e-05
5.066506e-05
6.0398071e-05
5.6741297e-05
3.0507501e-05
7.4156172e-06
5.3218017e-06
4.3509138e-06
3.2298972e-06
2.4102532e-06
1.9936526e-06
1.9200162e-06
1.8197707e-06
1.5661922e-06
1.2516304e-06
9.5670462e-07
5.9962108e-07
3.72018e-07
2.2326658e-07
1.2381728e-07
5.1387579e-08
1.6824313e-08
4.4530613e-09
9.6192305e-10
1.6587763e-10
2.1529662e-11
2.4261118e-12
9.9372152e-13
1.083588e-12
5.2370601e-05
1.0308829e-05
5.0677882e-05
6.0399313e-05
5.6732553e-05
3.1011735e-05
7.4420832e-06
5.3337987e-06
4.3617696e-06
3.2383613e-06
2.4100671e-06
1.9928577e-06
1.9189961e-06
1.8187513e-06
1.565289e-06
1.2510338e-06
9.5637089e-07
5.9931722e-07
3.7190534e-07
2.2322883e-07
1.2380305e-07
5.1364688e-08
1.6815804e-08
4.4508125e-09
9.6147884e-10
1.6581128e-10
2.1522465e-11
2.4254091e-12
9.9336217e-13
1.0831356e-12
5.2386562e-05
1.0321828e-05
5.0690502e-05
6.0400493e-05
5.6725158e-05
3.1451329e-05
7.467802e-06
5.3463832e-06
4.3724594e-06
3.2468294e-06
2.4099255e-06
1.9920855e-06
1.9179919e-06
1.8177541e-06
1.5644089e-06
1.2504503e-06
9.5604141e-07
5.9901555e-07
3.717906e-07
2.2318835e-07
1.2378693e-07
5.1341538e-08
1.6807237e-08
4.4485484e-09
9.6103091e-10
1.6574429e-10
2.1515172e-11
2.4246724e-12
9.929687e-13
1.0826462e-12
5.2402615e-05
1.0334102e-05
5.0702976e-05
6.0401639e-05
5.6719004e-05
3.1824222e-05
7.492676e-06
5.3595115e-06
4.3830433e-06
3.2552699e-06
2.4098152e-06
1.9913291e-06
1.9170007e-06
1.8167763e-06
1.5635486e-06
1.2498769e-06
9.5571298e-07
5.9871702e-07
3.7167477e-07
2.2314595e-07
1.237693e-07
5.1317777e-08
1.6798507e-08
4.4462554e-09
9.6057963e-10
1.6567712e-10
2.1507927e-11
2.4239697e-12
9.9260843e-13
1.0821931e-12
5.2418752e-05
1.0345814e-05
5.0715342e-05
6.0402778e-05
5.6714011e-05
3.2126641e-05
7.5167586e-06
5.3731248e-06
4.3937525e-06
3.2636428e-06
2.4097254e-06
1.9905831e-06
1.9160203e-06
1.8158155e-06
1.5627057e-06
1.2493122e-06
9.5538445e-07
5.9842126e-07
3.7155849e-07
2.2310254e-07
1.2375083e-07
5.1293539e-08
1.6789627e-08
4.4439277e-09
9.601221e-10
1.6560914e-10
2.1500661e-11
2.4233391e-12
9.9233106e-13
1.0818294e-12
5.2434967e-05
1.0357078e-05
5.072763e-05
6.0403941e-05
5.6710137e-05
3.2359484e-05
7.540202e-06
5.3872679e-06
4.4045823e-06
3.271942e-06
2.4096474e-06
1.9898438e-06
1.9150492e-06
1.8148702e-06
1.5618798e-06
1.248757e-06
9.5505726e-07
5.9813064e-07
3.7144409e-07
2.2306015e-07
1.2373313e-07
5.1269933e-08
1.6781083e-08
4.441719e-09
9.596949e-10
1.6554691e-10
2.1494217e-11
2.4228311e-12
9.9212444e-13
1.0815423e-12
5.2451256e-05
1.0367981e-05
5.0739857e-05
6.0405157e-05
5.6707201e-05
3.2528014e-05
7.5632041e-06
5.4019747e-06
4.4155447e-06
3.2801767e-06
2.4095751e-06
1.989109e-06
1.9140869e-06
1.813939e-06
1.5610706e-06
1.2482121e-06
9.5473196e-07
5.9784189e-07
3.7132849e-07
2.2301604e-07
1.237141e-07
5.1245685e-08
1.6772294e-08
4.4394365e-09
9.5925065e-10
1.6548174e-10
2.1487427e-11
2.4223208e-12
9.9194326e-13
1.0812833e-12
5.2467616e-05
1.0378586e-05
5.0752027e-05
6.0406465e-05
5.6705011e-05
3.263822e-05
7.5859519e-06
5.4173095e-06
4.4267002e-06
3.2883664e-06
2.4095045e-06
1.9883771e-06
1.9131328e-06
1.8130205e-06
1.5602782e-06
1.2476783e-06
9.5440984e-07
5.9755569e-07
3.712128e-07
2.2297145e-07
1.2369488e-07
5.1221589e-08
1.6763635e-08
4.4372071e-09
9.5882059e-10
1.6541926e-10
2.1481012e-11
2.4218602e-12
9.9178809e-13
1.081053e-12
5.2484042e-05
1.0388899e-05
5.0764134e-05
6.0407908e-05
5.670336e-05
3.2698304e-05
7.6085679e-06
5.4334016e-06
4.4380882e-06
3.296544e-06
2.4094293e-06
1.9876464e-06
1.9121864e-06
1.8121135e-06
1.5595021e-06
1.247156e-06
9.5409119e-07
5.9727014e-07
3.7109532e-07
2.2292482e-07
1.2367424e-07
5.1197025e-08
1.6754819e-08
4.434931e-09
9.5837918e-10
1.6535466e-10
2.1474311e-11
2.4213753e-12
9.9162935e-13
1.0808187e-12
5.2500533e-05
1.0398884e-05
5.0776165e-05
6.0409525e-05
5.6702052e-05
3.2718184e-05
7.6311623e-06
5.4498546e-06
4.4496695e-06
3.304728e-06
2.4093487e-06
1.9869161e-06
1.9112474e-06
1.8112189e-06
1.5587424e-06
1.2466456e-06
9.5377663e-07
5.9698805e-07
3.7097794e-07
2.2287748e-07
1.2365302e-07
5.1172382e-08
1.6746046e-08
4.4326851e-09
9.5794683e-10
1.6529183e-10
2.1467845e-11
2.4209091e-12
9.9147368e-13
1.0805885e-12
5.2517088e-05
1.0408464e-05
5.0788102e-05
6.0411353e-05
5.6700901e-05
3.2707739e-05
7.6538094e-06
5.4666541e-06
4.4613924e-06
3.3129365e-06
2.409263e-06
1.9861849e-06
1.9103151e-06
1.8103394e-06
1.5579993e-06
1.2461467e-06
9.5346582e-07
5.9670678e-07
3.708582e-07
2.2282704e-07
1.2362925e-07
5.1146183e-08
1.6736644e-08
4.4302468e-09
9.5746959e-10
1.6522104e-10
2.1460376e-11
2.4203726e-12
9.9132062e-13
1.0803618e-12
5.2533705e-05
1.0417525e-05
5.0799927e-05
6.0413415e-05
5.6699727e-05
3.2677608e-05
7.676569e-06
5.4837496e-06
4.4732118e-06
3.321179e-06
2.4091719e-06
1.985452e-06
1.9093891e-06
1.8094749e-06
1.5572732e-06
1.2456609e-06
9.5316094e-07
5.9642893e-07
3.7073897e-07
2.2277624e-07
1.2360511e-07
5.1119863e-08
1.6727252e-08
4.4278252e-09
9.5699817e-10
1.6515143e-10
2.1453073e-11
2.4198566e-12
9.9117852e-13
1.0801477e-12
5.2550385e-05
1.0425971e-05
5.0811634e-05
6.0415713e-05
5.669837e-05
3.2638513e-05
7.6995193e-06
5.5010732e-06
4.4850937e-06
3.3294684e-06
2.4090749e-06
1.9847163e-06
1.9084689e-06
1.808625e-06
1.5565637e-06
1.2451883e-06
9.528625e-07
5.9615376e-07
3.7061943e-07
2.2272415e-07
1.2357976e-07
5.1092915e-08
1.6717613e-08
4.4253284e-09
9.5650876e-10
1.6507853e-10
2.1445337e-11
2.4193082e-12
9.9103579e-13
1.0799325e-12
5.2567127e-05
1.0433768e-05
5.0823231e-05
6.0418214e-05
5.6696695e-05
3.2599413e-05
7.7227184e-06
5.5185394e-06
4.4970162e-06
3.3378162e-06
2.4089718e-06
1.9839771e-06
1.907554e-06
1.8077892e-06
1.5558708e-06
1.2447294e-06
9.5257132e-07
5.9588523e-07
3.7050248e-07
2.2267288e-07
1.2355462e-07
5.1066101e-08
1.6708082e-08
4.4228785e-09
9.5603207e-10
1.6500805e-10
2.1437928e-11
2.4187956e-12
9.9090797e-13
1.0797341e-12
5.2583932e-05
1.0440918e-05
5.0834745e-05
6.042085e-05
5.6694597e-05
3.2568568e-05
7.746233e-06
5.536082e-06
4.5089651e-06
3.34624e-06
2.4088626e-06
1.9832335e-06
1.906644e-06
1.8069672e-06
1.5551938e-06
1.2442836e-06
9.5228713e-07
5.9562018e-07
3.7038529e-07
2.2261973e-07
1.2352747e-07
5.1037843e-08
1.6697939e-08
4.4202372e-09
9.555104e-10
1.6492958e-10
2.1429511e-11
2.418209e-12
9.9077893e-13
1.0795351e-12
5.2600799e-05
1.0447422e-05
5.0846212e-05
6.042353e-05
5.6692009e-05
3.2553368e-05
7.7701525e-06
5.5536431e-06
4.5209202e-06
3.354761e-06
2.4087473e-06
1.9824853e-06
1.9057388e-06
1.8061589e-06
1.554533e-06
1.2438524e-06
9.5201191e-07
5.9536134e-07
3.7027109e-07
2.2256781e-07
1.2350075e-07
5.1009703e-08
1.6687871e-08
4.4176291e-09
9.5499792e-10
1.6485284e-10
2.142132e-11
2.4176444e-12
9.9065783e-13
1.0793454e-12
5.261773e-05
1.0453311e-05
5.0857664e-05
6.0426175e-05
5.6688891e-05
3.2558526e-05
7.7945523e-06
5.5712082e-06
4.5328572e-06
3.3633781e-06
2.408626e-06
1.9817329e-06
1.9048378e-06
1.8053637e-06
1.5538879e-06
1.2434353e-06
9.5174564e-07
5.9510752e-07
3.7015897e-07
2.2251625e-07
1.2347362e-07
5.0981091e-08
1.6677575e-08
4.4149445e-09
9.5446651e-10
1.6477259e-10
2.1412667e-11
2.417044e-12
9.9053445e-13
1.0791528e-12
5.2634723e-05
1.0458625e-05
5.0869116e-05
6.0428735e-05
5.6685217e-05
3.2587539e-05
7.819439e-06
5.5887482e-06
4.5447981e-06
3.3721033e-06
2.4084991e-06
1.9809775e-06
1.9039409e-06
1.8045813e-06
1.553258e-06
1.2430323e-06
9.514887e-07
5.9486255e-07
3.7005219e-07
2.2246782e-07
1.2344814e-07
5.0953065e-08
1.6667521e-08
4.4123407e-09
9.5395495e-10
1.6469596e-10
2.1404497e-11
2.4165021e-12
9.9043926e-13
1.0789911e-12
5.2651777e-05
1.046339e-05
5.0880588e-05
6.0431149e-05
5.6680988e-05
3.2642744e-05
7.8447905e-06
5.6062187e-06
4.5567846e-06
3.3809645e-06
2.4083669e-06
1.9802199e-06
1.9030475e-06
1.8038111e-06
1.5526426e-06
1.2426423e-06
9.5124015e-07
5.9462236e-07
3.6994742e-07
2.2241974e-07
1.2342224e-07
5.0924218e-08
1.6657054e-08
4.4095973e-09
9.5340963e-10
1.646133e-10
2.1395583e-11
2.4159261e-12
9.9036594e-13
1.078853e-12
5.2668893e-05
1.0467643e-05
5.0892105e-05
6.0433351e-05
5.6676245e-05
3.2723849e-05
7.8706709e-06
5.6236243e-06
4.5687988e-06
3.3899592e-06
2.4082296e-06
1.9794599e-06
1.9021585e-06
1.8030533e-06
1.5520418e-06
1.2422662e-06
9.5100124e-07
5.9438832e-07
3.6984685e-07
2.223745e-07
1.2339812e-07
5.0896184e-08
1.664691e-08
4.4069548e-09
9.5288817e-10
1.6453487e-10
2.1387206e-11
2.4153945e-12
9.9029982e-13
1.0787225e-12
5.268607e-05
1.0471452e-05
5.0903675e-05
6.0435307e-05
5.6671033e-05
3.2828513e-05
7.8971774e-06
5.6410122e-06
4.580827e-06
3.399091e-06
2.4080871e-06
1.9786976e-06
1.901274e-06
1.8023073e-06
1.5514548e-06
1.2419026e-06
9.507707e-07
5.9415775e-07
3.6974815e-07
2.223301e-07
1.233742e-07
5.0868036e-08
1.6636663e-08
4.404269e-09
9.5235501e-10
1.6445418e-10
2.1378521e-11
2.4148335e-12
9.9022522e-13
1.0785818e-12
5.2703308e-05
1.0474882e-05
5.0915296e-05
6.0437001e-05
5.6665389e-05
3.2953023e-05
7.9243001e-06
5.6583959e-06
4.5928787e-06
3.4083502e-06
2.4079402e-06
1.9779327e-06
1.9003932e-06
1.8015725e-06
1.5508808e-06
1.2415511e-06
9.5054824e-07
5.9393428e-07
3.6965412e-07
2.2228885e-07
1.2335224e-07
5.0840719e-08
1.6626755e-08
4.4016922e-09
9.5184816e-10
1.6437828e-10
2.137046e-11
2.4143334e-12
9.9016945e-13
1.0784614e-12
5.2720607e-05
1.0477919e-05
5.0926963e-05
6.0438419e-05
5.6659339e-05
3.3095908e-05
7.952011e-06
5.6757949e-06
4.6049606e-06
3.4177259e-06
2.4077888e-06
1.9771644e-06
1.8995157e-06
1.8008486e-06
1.5503192e-06
1.2412105e-06
9.5033257e-07
5.9371261e-07
3.6956011e-07
2.2224671e-07
1.2332917e-07
5.0812298e-08
1.6616315e-08
4.3989365e-09
9.5129791e-10
1.642946e-10
2.1361418e-11
2.4137595e-12
9.901091e-13
1.0783362e-12
5.2737966e-05
1.0480621e-05
5.0938671e-05
6.0439553e-05
5.6652907e-05
3.3257008e-05
7.9803629e-06
5.6932502e-06
4.6171135e-06
3.4272492e-06
2.4076326e-06
1.9763921e-06
1.8986411e-06
1.8001351e-06
1.5497704e-06
1.240882e-06
9.5005429e-07
5.934948e-07
3.6946887e-07
2.2220669e-07
1.2330761e-07
5.0784647e-08
1.6606194e-08
4.3962819e-09
9.5077186e-10
1.6421523e-10
2.1352917e-11
2.4132207e-12
9.9004501e-13
1.078207e-12
5.2755387e-05
1.0483082e-05
5.0950411e-05
6.0440393e-05
5.664612e-05
3.3433466e-05
8.0093534e-06
5.7107904e-06
4.6293607e-06
3.4369252e-06
2.4074719e-06
1.9756153e-06
1.8977683e-06
1.7994309e-06
1.5492332e-06
1.2405644e-06
9.4953833e-07
5.9327805e-07
3.693778e-07
2.2216636e-07
1.2328562e-07
5.0756698e-08
1.6595898e-08
4.3935602e-09
9.5022788e-10
1.641324e-10
2.1343935e-11
2.4126241e-12
9.8995396e-13
1.0780473e-12
5.2772872e-05
1.0485287e-05
5.0962176e-05
6.0440931e-05
5.6638991e-05
3.3623316e-05
8.0389014e-06
5.7284141e-06
4.6416895e-06
3.4467223e-06
2.4073063e-06
1.974833e-06
1.8968963e-06
1.7987345e-06
1.548707e-06
1.2402572e-06
9.4903185e-07
5.9306709e-07
3.6929031e-07
2.2212845e-07
1.2326521e-07
5.0729551e-08
1.6585964e-08
4.3909611e-09
9.4971413e-10
1.6405508e-10
2.1335655e-11
2.4120768e-12
9.898625e-13
1.0778876e-12
5.2790423e-05
1.0487204e-05
5.0973958e-05
6.0441157e-05
5.6631522e-05
3.3826892e-05
8.0689841e-06
5.7461482e-06
4.6541078e-06
3.4566301e-06
2.4071352e-06
1.9740438e-06
1.8960238e-06
1.7980438e-06
1.5481902e-06
1.2399587e-06
9.4852925e-07
5.9285621e-07
3.6920119e-07
2.2208822e-07
1.2324262e-07
5.0700688e-08
1.6575249e-08
4.3881063e-09
9.4913891e-10
1.6396674e-10
2.1325972e-11
2.4114176e-12
9.8975805e-13
1.077714e-12
5.2808042e-05
1.048888e-05
5.0985747e-05
6.0441062e-05
5.6623713e-05
3.4045193e-05
8.0996451e-06
5.7640094e-06
4.6666322e-06
3.4666485e-06
2.4069574e-06
1.9732461e-06
1.8951495e-06
1.797356e-06
1.547683e-06
1.2396703e-06
9.4803105e-07
5.9264856e-07
3.6911444e-07
2.2204983e-07
1.2322138e-07
5.0672513e-08
1.6564842e-08
4.3853556e-09
9.4858941e-10
1.6388305e-10
2.1316885e-11
2.410802e-12
9.89655e-13
1.0775421e-12
5.2825732e-05
1.049033e-05
5.0997533e-05
6.0440636e-05
5.6615572e-05
3.4278483e-05
8.1308764e-06
5.7820092e-06
4.6792636e-06
3.4767709e-06
2.4067715e-06
1.9724384e-06
1.8942719e-06
1.7966672e-06
1.5471838e-06
1.2393907e-06
9.4753355e-07
5.9244131e-07
3.6902739e-07
2.220108e-07
1.2319947e-07
5.0643906e-08
1.6554211e-08
4.3825236e-09
9.4801876e-10
1.6379534e-10
2.1307241e-11
2.4101254e-12
9.8952795e-13
1.0773428e-12
5.2843495e-05
1.0491504e-05
5.1009306e-05
6.0439873e-05
5.6607117e-05
3.4523315e-05
8.1626196e-06
5.8001745e-06
4.6919898e-06
3.4869695e-06
2.4065776e-06
1.9716184e-06
1.8933893e-06
1.7959742e-06
1.546692e-06
1.2391196e-06
9.4704571e-07
5.9224011e-07
3.6894418e-07
2.2197437e-07
1.2317926e-07
5.0616161e-08
1.6543981e-08
4.3798298e-09
9.4748274e-10
1.6371403e-10
2.1298433e-11
2.4095145e-12
9.8940752e-13
1.0771513e-12
5.2861334e-05
1.049239e-05
5.1021056e-05
6.0438766e-05
5.659835e-05
3.4777253e-05
8.1949014e-06
5.8185292e-06
4.7048294e-06
3.4972816e-06
2.4063792e-06
1.9707832e-06
1.8925001e-06
1.795283e-06
1.5462071e-06
1.2388551e-06
9.46561e-07
5.920383e-07
3.6885871e-07
2.2193502e-07
1.2315638e-07
5.0586356e-08
1.6532822e-08
4.3768335e-09
9.468739e-10
1.6361963e-10
2.1287957e-11
2.4087755e-12
9.8927797e-13
1.0769501e-12
5.2879252e-05
1.0492997e-05
5.1032776e-05
6.0437307e-05
5.6589261e-05
3.5041884e-05
8.2277619e-06
5.8370918e-06
4.7178201e-06
3.5077264e-06
2.406176e-06
1.9699297e-06
1.8916028e-06
1.7945952e-06
1.5457301e-06
1.2385991e-06
9.4607958e-07
5.9183941e-07
3.6877566e-07
2.2189767e-07
1.2313498e-07
5.0557327e-08
1.6522015e-08
4.3739571e-09
9.4629498e-10
1.635307e-10
2.1278187e-11
2.4080884e-12
9.8915012e-13
1.0767511e-12
5.2897254e-05
1.0493324e-05
5.1044458e-05
6.0435495e-05
5.6579845e-05
3.5317554e-05
8.2611821e-06
5.855894e-06
4.7309888e-06
3.5183194e-06
2.4059681e-06
1.9690551e-06
1.8906957e-06
1.7939097e-06
1.5452601e-06
1.2383506e-06
9.4559772e-07
5.9164029e-07
3.686921e-07
2.2185955e-07
1.2311279e-07
5.0527788e-08
1.6510944e-08
4.3709845e-09
9.456909e-10
1.6343696e-10
2.1267752e-11
2.4073303e-12
9.8899585e-13
1.0765221e-12
5.2915342e-05
1.0493367e-05
5.1056095e-05
6.0433332e-05
5.6570106e-05
3.560411e-05
8.2951806e-06
5.8749154e-06
4.7442783e-06
3.5290237e-06
2.4057556e-06
1.9681561e-06
1.8897766e-06
1.7932252e-06
1.5447962e-06
1.2381094e-06
9.4512447e-07
5.9144693e-07
3.6861252e-07
2.2182434e-07
1.2309259e-07
5.0499293e-08
1.6500353e-08
4.3681751e-09
9.4512735e-10
1.6335066e-10
2.1258285e-11
2.4066485e-12
9.8884973e-13
1.0763025e-12
5.2933523e-05
1.0493098e-05
5.1067684e-05
6.0430825e-05
5.6560051e-05
3.5902718e-05
8.3298143e-06
5.8941586e-06
4.7576653e-06
3.5398114e-06
2.4055382e-06
1.9672309e-06
1.8888437e-06
1.7925405e-06
1.5443374e-06
1.2378734e-06
9.446534e-07
5.9125255e-07
3.6853063e-07
2.217863e-07
1.2306984e-07
5.0468817e-08
1.6488862e-08
4.3650707e-09
9.4449239e-10
1.6325145e-10
2.124716e-11
2.4058391e-12
9.8869485e-13
1.0760736e-12
5.29518e-05
1.049247e-05
5.1079226e-05
6.042798e-05
5.6549707e-05
3.621286e-05
8.3651435e-06
5.9136881e-06
4.7712438e-06
3.55074e-06
2.4053153e-06
1.9662797e-06
1.8878952e-06
1.7918548e-06
1.5438843e-06
1.2376447e-06
9.4418484e-07
5.9106063e-07
3.6845095e-07
2.2175024e-07
1.2304863e-07
5.0439197e-08
1.6477756e-08
4.3620958e-09
9.4388946e-10
1.6315808e-10
2.123679e-11
2.4050852e-12
9.8854161e-13
1.0758467e-12
5.2970181e-05
1.049148e-05
5.1090726e-05
6.0424806e-05
5.6539115e-05
3.6531799e-05
8.4011932e-06
5.9335355e-06
4.7850211e-06
3.5618165e-06
2.4050867e-06
1.9653024e-06
1.8869292e-06
1.7911668e-06
1.5434357e-06
1.2374221e-06
9.4371516e-07
5.9086791e-07
3.6837034e-07
2.2171317e-07
1.2302652e-07
5.0409042e-08
1.6466386e-08
4.3590274e-09
9.4326242e-10
1.630601e-10
2.1225779e-11
2.4042611e-12
9.8836118e-13
1.0755889e-12
5.2988671e-05
1.0490136e-05
5.110219e-05
6.0421313e-05
5.6528329e-05
3.6857621e-05
8.4380018e-06
5.953692e-06
4.798912e-06
3.5729721e-06
2.4048522e-06
1.9642963e-06
1.8859436e-06
1.790475e-06
1.5429912e-06
1.2372052e-06
9.4325391e-07
5.9068069e-07
3.682935e-07
2.2167887e-07
1.230063e-07
5.0379845e-08
1.645546e-08
4.3561118e-09
9.4267379e-10
1.629693e-10
2.1215717e-11
2.4035161e-12
9.8819289e-13
1.0753449e-12
5.3007277e-05
1.0488419e-05
5.111363e-05
6.0417515e-05
5.6517424e-05
3.7189923e-05
8.4757374e-06
5.9742219e-06
4.8129249e-06
3.5842102e-06
2.4046113e-06
1.963259e-06
1.8849366e-06
1.7897783e-06
1.5425495e-06
1.2369924e-06
9.4279384e-07
5.904918e-07
3.6821379e-07
2.2164132e-07
1.2298325e-07
5.0348513e-08
1.6443575e-08
4.3528832e-09
9.4200951e-10
1.6286481e-10
2.1203902e-11
2.4026383e-12
9.8801782e-13
1.0750937e-12
5.3026004e-05
1.0486352e-05
5.1125057e-05
6.0413431e-05
5.6506519e-05
3.7526519e-05
8.5146182e-06
5.9952244e-06
4.8271296e-06
3.5955842e-06
2.4043637e-06
1.962188e-06
1.8839059e-06
1.7890754e-06
1.5421114e-06
1.2367856e-06
9.4233458e-07
5.9030471e-07
3.6813585e-07
2.2160546e-07
1.229616e-07
5.0317982e-08
1.6432062e-08
4.349782e-09
9.4137713e-10
1.6276619e-10
2.1192847e-11
2.4018146e-12
9.8784205e-13
1.074842e-12
5.3044861e-05
1.0483979e-05
5.1136482e-05
6.0409083e-05
5.6495767e-05
3.7863253e-05
8.5548014e-06
6.0167701e-06
4.841503e-06
3.6070833e-06
2.4041095e-06
1.9610811e-06
1.8828495e-06
1.788364e-06
1.5416758e-06
1.2365838e-06
9.4187047e-07
5.9011614e-07
3.6805659e-07
2.2156829e-07
1.2293885e-07
5.0286813e-08
1.6420242e-08
4.346573e-09
9.40717e-10
1.6266228e-10
2.118106e-11
2.40091e-12
9.8763441e-13
1.0745543e-12
5.3063854e-05
1.0481309e-05
5.1147917e-05
6.040449e-05
5.6485243e-05
3.8199748e-05
8.5963798e-06
6.0389067e-06
4.8559651e-06
3.6186338e-06
2.4038481e-06
1.959936e-06
1.8817649e-06
1.7876401e-06
1.5412422e-06
1.2363869e-06
9.4140424e-07
5.8993236e-07
3.6798106e-07
2.2153381e-07
1.228985e-07
5.0256626e-08
1.6408883e-08
4.3435232e-09
9.4009684e-10
1.625658e-10
2.1170247e-11
2.4000829e-12
9.8743489e-13
1.0742762e-12
5.3082991e-05
1.0478325e-05
5.1159375e-05
6.0399672e-05
5.6474654e-05
3.8543331e-05
8.6392671e-06
6.0615402e-06
4.8705357e-06
3.6302237e-06
2.4035779e-06
1.95875e-06
1.8806501e-06
1.7868961e-06
1.5408091e-06
1.2361935e-06
9.4092379e-07
5.8974642e-07
3.6790303e-07
2.2149616e-07
1.2284321e-07
5.0224353e-08
1.6396588e-08
4.3401679e-09
9.394028e-10
1.6245593e-10
2.1157716e-11
2.3991236e-12
9.8722703e-13
1.073989e-12
5.3102278e-05
1.0475025e-05
5.1170872e-05
6.0394649e-05
5.6463853e-05
3.8900266e-05
8.6834691e-06
6.0846692e-06
4.8852765e-06
3.6418842e-06
2.4032972e-06
1.9575209e-06
1.8795027e-06
1.7861222e-06
1.540377e-06
1.2360056e-06
9.4044425e-07
5.8956214e-07
3.6782674e-07
2.2146025e-07
1.2278917e-07
5.0192908e-08
1.6384675e-08
4.3369424e-09
9.3874103e-10
1.6235197e-10
2.114595e-11
2.3982216e-12
9.8702132e-13
1.0737044e-12
5.3121724e-05
1.0471453e-05
5.118243e-05
6.0389443e-05
5.645284e-05
3.9273291e-05
8.7290322e-06
6.1083113e-06
4.9001645e-06
3.653575e-06
2.4030032e-06
1.9562458e-06
1.8783212e-06
1.7853366e-06
1.5399458e-06
1.2358221e-06
9.3996222e-07
5.893763e-07
3.6774903e-07
2.2142302e-07
1.2273433e-07
5.0160888e-08
1.6372489e-08
4.3336216e-09
9.380548e-10
1.6224335e-10
2.1133533e-11
2.3972457e-12
9.8678555e-13
1.0733857e-12
5.3141336e-05
1.0467657e-05
5.1194079e-05
6.038406e-05
5.6441628e-05
3.9663744e-05
8.7760049e-06
6.1324468e-06
4.915175e-06
3.6653187e-06
2.402703e-06
1.9549214e-06
1.8771034e-06
1.7845383e-06
1.539515e-06
1.2356429e-06
9.3948762e-07
5.8919506e-07
3.6767439e-07
2.2138808e-07
1.2268066e-07
5.01297e-08
1.6360697e-08
4.3304386e-09
9.3740341e-10
1.6214126e-10
2.1121979e-11
2.3963384e-12
9.8655642e-13
1.073075e-12
5.316112e-05
1.0463641e-05
5.1205848e-05
6.0378519e-05
5.6430231e-05
4.0073457e-05
8.8244958e-06
6.1571078e-06
4.9303003e-06
3.6770864e-06
2.4023972e-06
1.9535449e-06
1.8758495e-06
1.7837264e-06
1.5390839e-06
1.2354666e-06
9.3901392e-07
5.8901169e-07
3.6759656e-07
2.2134968e-07
1.2262376e-07
5.0096364e-08
1.6347954e-08
4.3269467e-09
9.3667757e-10
1.6202568e-10
2.1108693e-11
2.3952979e-12
9.8631912e-13
1.0727555e-12
5.3181087e-05
1.0459442e-05
5.1217756e-05
6.0372852e-05
5.6418667e-05
4.0503958e-05
8.8746858e-06
6.1823761e-06
4.945597e-06
3.6889362e-06
2.4020864e-06
1.9521171e-06
1.8745586e-06
1.7829008e-06
1.5386537e-06
1.2352957e-06
9.3854133e-07
5.8882974e-07
3.6752016e-07
2.2131275e-07
1.2256791e-07
5.0063756e-08
1.6335551e-08
4.3235716e-09
9.3598077e-10
1.6191543e-10
2.1096097e-11
2.3943081e-12
9.8608324e-13
1.0724379e-12
5.3201241e-05
1.0455128e-05
5.1229824e-05
6.0367094e-05
5.6406984e-05
4.0954616e-05
8.9267531e-06
6.208318e-06
4.9610892e-06
3.7008892e-06
2.4017701e-06
1.9506449e-06
1.8732305e-06
1.782061e-06
1.5382239e-06
1.2351295e-06
9.3806668e-07
5.8864625e-07
3.6744229e-07
2.2127443e-07
1.2251122e-07
5.0030554e-08
1.6322869e-08
4.3200993e-09
9.3525904e-10
1.6180039e-10
2.1082832e-11
2.3932426e-12
9.8581672e-13
1.0720858e-12
5.3221593e-05
1.0450695e-05
5.1242072e-05
6.0361283e-05
5.6395289e-05
4.1422564e-05
8.9808913e-06
6.2350005e-06
4.9767543e-06
3.7128823e-06
2.4014487e-06
1.9491288e-06
1.8718648e-06
1.7812065e-06
1.5377945e-06
1.2349684e-06
9.375993e-07
5.8846731e-07
3.6736742e-07
2.2123832e-07
1.2245572e-07
4.9998188e-08
1.631058e-08
4.3167629e-09
9.3457128e-10
1.6169167e-10
2.1070394e-11
2.3922417e-12
9.8555549e-13
1.0717402e-12
5.3242148e-05
1.0446111e-05
5.1254516e-05
6.0355457e-05
5.6383829e-05
4.1895881e-05
9.0374762e-06
6.2625738e-06
4.9925882e-06
3.7248954e-06
2.4011218e-06
1.9475692e-06
1.8704619e-06
1.7803373e-06
1.5373653e-06
1.2348111e-06
9.3713361e-07
5.8828682e-07
3.6728976e-07
2.211991e-07
1.2239728e-07
4.9963882e-08
1.6297437e-08
4.3131502e-09
9.3381705e-10
1.6157089e-10
2.1056403e-11
2.3911196e-12
9.852855e-13
1.071385e-12
5.326291e-05
1.0441424e-05
5.1267175e-05
6.034965e-05
5.6373162e-05
4.2364183e-05
9.0970282e-06
6.2914156e-06
5.0085987e-06
3.7369494e-06
2.4007897e-06
1.9459675e-06
1.869022e-06
1.7794539e-06
1.5369376e-06
1.2346602e-06
9.3667028e-07
5.8810835e-07
3.6721374e-07
2.2116136e-07
1.2233984e-07
4.993025e-08
1.6284606e-08
4.3096445e-09
9.330894e-10
1.6145499e-10
2.1043046e-11
2.3900465e-12
9.8501896e-13
1.0710338e-12
5.3283886e-05
1.0436695e-05
5.1280062e-05
6.0343881e-05
5.6362567e-05
4.2842437e-05
9.1593225e-06
6.3212825e-06
5.0247934e-06
3.7490509e-06
2.4004531e-06
1.9443253e-06
1.8675461e-06
1.7785566e-06
1.5365115e-06
1.2345153e-06
9.3620636e-07
5.8792912e-07
3.671366e-07
2.2112243e-07
1.2228163e-07
4.9896082e-08
1.6271528e-08
4.3060535e-09
9.323401e-10
1.6133496e-10
2.102911e-11
2.3889069e-12
9.847251e-13
1.0706516e-12
5.3305076e-05
1.0431908e-05
5.1293191e-05
6.0338172e-05
5.6351664e-05
4.3345645e-05
9.2242513e-06
6.3520947e-06
5.0411851e-06
3.7611736e-06
2.400113e-06
1.9426446e-06
1.8660356e-06
1.7776457e-06
1.5360873e-06
1.2343767e-06
9.3575159e-07
5.8775508e-07
3.6706257e-07
2.2108563e-07
1.2222443e-07
4.9862621e-08
1.6258783e-08
4.3025798e-09
9.3162052e-10
1.6122054e-10
2.1015921e-11
2.3878294e-12
9.8443984e-13
1.0702796e-12
5.3326484e-05
1.0427037e-05
5.1306576e-05
6.0332548e-05
5.6340399e-05
4.3878918e-05
9.2919729e-06
6.3839036e-06
5.0577963e-06
3.7733119e-06
2.3997693e-06
1.9409265e-06
1.8644922e-06
1.7767222e-06
1.5356652e-06
1.2342436e-06
9.3529971e-07
5.8757975e-07
3.6698562e-07
2.2104545e-07
1.2216405e-07
4.9827068e-08
1.6245118e-08
4.2988084e-09
9.3082919e-10
1.6109309e-10
2.1001052e-11
2.3866204e-12
9.8414467e-13
1.0698967e-12
5.3348108e-05
1.0422108e-05
5.1320229e-05
6.0327031e-05
5.632874e-05
4.4446372e-05
9.3627064e-06
6.4168143e-06
5.0746439e-06
3.7854875e-06
2.3994216e-06
1.9391713e-06
1.8629183e-06
1.7757873e-06
1.5352471e-06
1.2341189e-06
9.3485127e-07
5.87407e-07
3.6691048e-07
2.2100674e-07
1.2210461e-07
4.9792153e-08
1.6231754e-08
4.2951409e-09
9.3006396e-10
1.6097044e-10
2.0986809e-11
2.3854591e-12
9.8385264e-13
1.0695176e-12
5.3369948e-05
1.0417198e-05
5.1334169e-05
6.0321631e-05
5.6316668e-05
4.5051254e-05
9.4366012e-06
6.4508447e-06
5.0917264e-06
3.7977e-06
2.3990704e-06
1.9373764e-06
1.8613163e-06
1.7748422e-06
1.5348336e-06
1.2340026e-06
9.3440223e-07
5.8723401e-07
3.6683442e-07
2.2096681e-07
1.2204434e-07
4.9756634e-08
1.62181e-08
4.2913722e-09
9.292726e-10
1.6084278e-10
2.0971866e-11
2.3842196e-12
9.8353e-13
1.069104e-12
5.3392e-05
1.0412331e-05
5.1348416e-05
6.0316349e-05
5.6304164e-05
4.5094447e-05
9.5137788e-06
6.486014e-06
5.1090621e-06
3.8099259e-06
2.3987166e-06
1.935549e-06
1.8596893e-06
1.7738882e-06
1.5344255e-06
1.2338953e-06
9.3396128e-07
5.8706736e-07
3.6676242e-07
2.2092957e-07
1.2198536e-07
4.9722055e-08
1.6204885e-08
4.2877545e-09
9.2851905e-10
1.6072216e-10
2.095785e-11
2.3830551e-12
9.8321602e-13
1.0687008e-12
5.3414259e-05
1.0407458e-05
5.1362987e-05
6.0311179e-05
5.6291215e-05
4.507777e-05
9.5944662e-06
6.5223967e-06
5.1266824e-06
3.821618e-06
2.3983606e-06
1.9337027e-06
1.8580408e-06
1.7729269e-06
1.5340229e-06
1.233796e-06
9.3351855e-07
5.8690019e-07
3.6668832e-07
2.2088897e-07
1.2192197e-07
4.9685246e-08
1.619072e-08
4.2838287e-09
9.2769086e-10
1.6058793e-10
2.094207e-11
2.3817518e-12