/*--------------------------------*- C++ -*----------------------------------*\
| =========                 |                                                 |
| \\      /  F ield         | OpenFOAM: The Open Source CFD Toolbox           |
|  \\    /   O peration     | Version:  v2012                                 |
|   \\  /    A nd           | Website:  www.openfoam.com                      |
|    \\/     M anipulation  |                                                 |
\*---------------------------------------------------------------------------*/
FoamFile
{
    version     2.0;
    format      ascii;
    class       volScalarField;
    location    "100";
    object      omega;
}
// * * * * * * * * * * * * * * * * * * * * * * * * * * * * * * * * * * * * * //

dimensions      [0 0 -1 0 0 0 0];


internalField   nonuniform List<scalar> 
24000
(
1773.2714
3540.5974
1866.8375
1527.8062
1609.1543
2017.1444
3240.0601
7272.5387
16222.59
31748.068
54670.819
81971.859
112165.77
155505.79
232691.28
375943.91
636120.35
1100828.6
1753791.7
2532273.6
3486375
4859155.1
7215223.9
11711433
20843381
40775763
89688106
2.35553e+08
8.4359201e+08
5.5518775e+09
1772.231
3530.9941
1865.6209
1528.6194
1609.5656
2019.4219
3235.1777
7275.6967
16225.43
31716.9
54552.923
81533.568
111239.51
153487.36
228379.47
366630.02
616671.05
1064121.9
1698327.5
2458999.1
3402394
4778618.8
7150027.1
11657179
20770424
40614033
89248614
2.3409626e+08
8.3651756e+08
5.5374701e+09
1771.5183
3525.7704
1864.1142
1528.9297
1612.3958
2023.9758
3224.0858
7275.0754
16224.947
31690.319
54460.505
81357.978
110908.9
152755.12
226525.71
362397.38
607655.15
1049515.6
1681816.6
2443167.9
3385436.1
4752999.9
7107426.2
11595068
20694187
40538348
89222166
2.3439158e+08
8.3944248e+08
5.5270886e+09
1770.9367
3521.2983
1863.0921
1528.7981
1613.7006
2026.5539
3221.4063
7275.2203
16226.258
31685.904
54448.479
81327.206
110852.65
152600.4
226343.32
362092.06
607261.35
1048899.9
1681622.2
2444442.5
3388879.8
4759870.4
7119687
11614569
20722836
40580403
89289557
2.3451401e+08
8.3964825e+08
5.5316346e+09
1770.3424
3517.0448
1862.2082
1528.6978
1614.707
2028.6535
3219.4576
7274.742
16225.022
31677.182
54433.218
81302.004
110828.57
152586.63
226329.41
362038.61
607015.97
1048305.6
1680707.3
2443400.2
3387840.7
4758705.4
7118222.1
11613032
20722247
40583148
89301913
2.3455955e+08
8.3986922e+08
5.5321586e+09
1769.7432
3512.9719
1861.399
1528.6023
1615.5224
2030.3816
3218.0435
7274.0051
16222.245
31666.474
54417.568
81281.18
110817.52
152605.58
226395.96
362180.44
607249.58
1048608.5
1680913.3
2443494.9
3388004.1
4759261.6
7119607.6
11615845
20727525
40593203
89322875
2.3461131e+08
8.4004127e+08
5.5333966e+09
1769.137
3508.9949
1860.6449
1528.5118
1616.1973
2031.8384
3216.94
7272.9486
16217.66
31652.531
54397.659
81257.399
110806.78
152629.66
226478.2
362359.49
607555.44
1049031.8
1681217.7
2443555.6
3387930.9
4759316.7
7120134.2
11617304
20730721
40599902
89337776
2.346502e+08
8.4018063e+08
5.5342405e+09
1768.5252
3505.0701
1859.9315
1528.4254
1616.7799
2033.1008
3215.9837
7271.6184
16211.396
31635.609
54373.658
81229.615
110792.75
152651.17
226559.1
362541.4
607872.18
1049478.9
1681538.8
2443584.8
3387758.6
4759212.3
7120442
11618423
20733263
40605172
89349254
2.3467949e+08
8.4028246e+08
5.5349047e+09
1767.9084
3501.1678
1859.249
1528.3424
1617.2843
2034.1938
3215.1431
7270.0578
16203.589
31615.936
54345.696
81197.436
110774.01
152666.44
226630.18
362707.45
608161.59
1049878
1681781.5
2443488.8
3387406.6
4758866.1
7120412.8
11619021
20734902
40608719
89357050
2.3469937e+08
8.4035128e+08
5.5353559e+09
1767.2871
3497.271
1858.5904
1528.2617
1617.7087
2035.1152
3214.452
7268.3144
16194.404
31593.851
54314.222
81161.18
110750.48
152674.6
226689.06
362852.56
608414.69
1050216.6
1681940.4
2443281.1
3386909.5
4758333.7
7120131.1
11619231
20735859
40610925
89361891
2.3471153e+08
8.403926e+08
5.5356381e+09
1766.6617
3493.3698
1857.9501
1528.1826
1618.0511
2035.8621
3213.9444
7266.4337
16184.008
31569.679
54279.721
81121.413
110722.66
152675.96
226735.75
362976.31
608631.03
1050496.1
1682024.5
2442983.7
3386299.1
4757646.5
7119622.9
11619085
20736211
40612007
89364386
2.3471784e+08
8.4041391e+08
5.5357853e+09
1766.0325
3489.4584
1857.324
1528.1051
1618.3185
2036.4474
3213.592
7264.3893
16172.685
31543.727
54242.776
81078.921
110691.4
152671.55
226771.8
363081.34
608816.3
1050729.7
1682060.5
2442641.8
3385639.1
4756884
7118987
11618723
20736193
40612409
89365480
2.3472071e+08
8.4042405e+08
5.5358508e+09
1765.3997
3485.5343
1856.7088
1528.0294
1618.5323
2036.9105
3213.2171
7262.1122
16160.901
31516.276
54203.979
81034.437
110657.47
152662.39
226798.82
363170.41
608975.71
1050927.2
1682064.8
2442280.4
3384963.5
4756089.4
7118277.4
11618219
20735928
40612382
89365758
2.3472173e+08
8.4042858e+08
5.5358682e+09
1764.7635
3481.596
1856.1016
1527.9552
1618.707
2037.2757
3212.8116
7259.6424
16148.325
31488.105
54163.801
80988.517
110621.53
152649.48
226818.52
363246.56
609115.02
1051099.4
1682053.1
2441922.6
3384308.4
4755320.5
7117584.1
11617711
20735628
40612264
89365818
2.3472219e+08
8.4043142e+08
5.535871e+09
1764.1241
3477.6432
1855.5001
1527.8819
1618.8455
2037.5374
3212.4223
7257.0076
16134.977
31459.432
54122.603
80941.611
110584.15
152633.65
226832.32
363311.89
609236.88
1051246.9
1682018
2441550.9
3383651
4754557.3
7116897.1
11617198
20735295
40612059
89365677
2.3472211e+08
8.4043217e+08
5.5358635e+09
1763.4816
3473.6761
1854.9029
1527.8088
1618.95
2037.7079
3212.0688
7254.2329
16120.96
31430.286
54080.656
80894.042
110545.75
152615.61
226841.37
363368.11
609343.3
1051370.1
1681954.5
2441154.2
3382977
4753787.7
7116210.2
11616682
20734937
40611770
89365290
2.3472127e+08
8.4042963e+08
5.5358445e+09
1762.8361
3469.6959
1854.3086
1527.7353
1619.0214
2037.8042
3211.761
7251.3322
16106.359
31400.676
54038.151
80846.014
110506.63
152595.78
226846.4
363416.12
609435.01
1051468.4
1681858.5
2440724.1
3382272.6
4752990.6
7115493.5
11616123
20734509
40611351
89364632
2.3471971e+08
8.4042429e+08
5.5358108e+09
1762.1879
3465.7043
1853.7165
1527.6604
1619.0648
2037.839
3211.5016
7248.3079
16091.247
31370.607
53995.241
80797.686
110467.03
152574.59
226848.29
363457.63
609515.53
1051549.6
1681744.6
2440281.4
3381564.1
4752197.5
7114787.7
11615582
20734101
40610945
89363944
2.3471794e+08
8.404178e+08
5.535774e+09
1761.537
3461.7042
1853.1266
1527.5832
1619.0858
2037.8245
3211.2891
7245.1546
16075.684
31340.096
53952.04
80749.179
110427.15
152552.34
226847.63
363493.51
609585.97
1051614.6
1681611.1
2439820.9
3380840.6
4751389.6
7114062.4
11615009
20733636
40610438
89363068
2.3471575e+08
8.4040983e+08
5.5357287e+09
1760.8837
3457.6986
1852.539
1527.5022
1619.0901
2037.7732
3211.1166
7241.8616
16059.718
31309.103
53908.741
80700.594
110387.16
152529.32
226845
363524.78
609648.16
1051666.8
1681463.8
2439351.3
3380114.9
4750584.6
7113341.8
11614438
20733171
40609923
89362151
2.347134e+08
8.4040129e+08
5.535681e+09
1760.228
3453.6913
1851.9543
1527.4159
1619.0832
2037.697
3210.9752
7238.4203
16043.394
31277.692
53865.359
80652.009
110347.21
152505.87
226840.86
363552.06
609702.77
1051706.1
1681300
2438865.9
3379375.3
4749767
7112605.9
11613845
20732670
40609353
89361157
2.3471094e+08
8.4039238e+08
5.5356299e+09
1759.5699
3449.6857
1851.3731
1527.323
1619.0705
2037.6073
3210.8549
7234.8221
16026.773
31245.918
53821.871
80603.491
110307.48
152482.46
226835.83
363576.66
609752.45
1051738.2
1681130.1
2438379.4
3378642
4748963.8
7111894.8
11613292
20732230
40608872
89360280
2.347086e+08
8.4038341e+08
5.5355838e+09
1758.9095
3445.6849
1850.796
1527.2224
1619.057
2037.5148
3210.7441
7231.0605
16009.895
31213.813
53778.262
80555.047
110268.02
152459.19
226830.01
363598.41
609795.99
1051758.9
1680944.4
2437876.6
3377893.5
4748145.3
7111164.2
11612707
20731736
40608296
89359239
2.3470591e+08
8.403733e+08
5.5355308e+09
1758.2468
3441.6913
1850.2234
1527.1136
1619.0472
2037.4288
3210.6305
7227.1317
15992.796
31181.398
53734.535
80506.688
110228.88
152436.23
226823.7
363617.83
609834.23
1051769.6
1680745.6
2437362.6
3377139.5
4747327.2
7110438.1
11612128
20731246
40607714
89358149
2.3470304e+08
8.4036241e+08
5.5354754e+09
1757.5818
3437.7061
1849.6547
1526.9971
1619.0451
2037.3576
3210.5028
7223.0336
15975.497
31148.691
53690.699
80458.425
110190.11
152413.67
226817.07
363635.1
609866.92
1051768.4
1680527.8
2436826.8
3376363.2
4746487.4
7109687.6
11611518
20730709
40607059
89356941
2.3469992e+08
8.4035063e+08
5.5354141e+09
1756.9145
3433.7298
1849.0889
1526.8746
1619.0537
2037.3078
3210.3501
7218.7651
15958.018
31115.709
53646.753
80410.277
110151.79
152391.72
226810.63
363651.36
609896.71
1051761.4
1680303
2436286.6
3375589
4745657.5
7108958.3
11610944
20730229
40606488
89355833
2.3469687e+08
8.403386e+08
5.535356e+09
1756.2448
3429.7625
1848.5242
1526.7484
1619.0751
2037.2842
3210.1633
7214.3264
15940.367
31082.456
53602.698
80362.239
110113.91
152370.4
226804.35
363666.34
609922.26
1051744.1
1680060.8
2435725.7
3374793.6
4744806.2
7108202
11610327
20729678
40605791
89354508
2.3469338e+08
8.4032515e+08
5.5352888e+09
1755.5729
3425.804
1847.9593
1526.6207
1619.1106
2037.2899
3209.9362
7209.7194
15922.548
31048.936
53558.54
80314.339
110076.48
152349.8
226798.44
363680.5
609944.5
1051718.3
1679804.5
2435149.3
3373986.8
4743950.2
7107447.4
11609716
20729128
40605083
89353116
2.3468963e+08
8.4031066e+08
5.5352174e+09
1754.8987
3421.8537
1847.3934
1526.4927
1619.1613
2037.3264
3209.6634
7204.9454
15904.561
31015.147
53514.285
80266.613
110039.5
152329.95
226792.97
363693.86
609963.06
1051682
1679527.2
2434543.7
3373146.4
4743059.9
7106655.9
11609058
20728511
40604265
89351532
2.3468546e+08
8.4029464e+08
5.535137e+09
1754.2222
3417.9112
1846.8256
1526.366
1619.227
2037.3936
3209.3428
7200.0047
15886.393
30981.087
53469.938
80219.115
110002.98
152310.97
226788.28
363707.44
609980.55
1051641.6
1679242
2433928
3372297
4742165
7105869.5
11608418
20727925
40603481
89349939
2.3468107e+08
8.4027731e+08
5.5350544e+09
1753.5435
3413.9764
1846.2549
1526.2427
1619.3068
2037.4897
3208.9752
7194.8986
15868.029
30946.752
53425.487
80171.83
109966.95
152292.81
226784.27
363720.91
609995.95
1051594.1
1678941.7
2433290.3
3371420.3
4741238.4
7105043.4
11607722
20727252
40602554
89348101
2.3467617e+08
8.4025841e+08
5.53496e+09
1752.8627
3410.0491
1845.681
1526.124
1619.3998
2037.6121
3208.5622
7189.6289
15849.455
30912.126
53380.923
80124.771
109931.45
152275.53
226781.15
363734.92
610010.99
1051543.7
1678634
2432642
3370533.3
4740304
7104213.2
11607025
20726575
40601607
89346188
2.3467104e+08
8.4023865e+08
5.5348612e+09
1752.1797
3406.1294
1845.104
1526.0102
1619.5049
2037.7575
3208.1052
7184.1954
15830.648
30877.182
53336.243
80077.942
109896.46
152259.11
226778.83
363749.25
610025.01
1051488.2
1678313.2
2431971.8
3369616.4
4739334.5
7103342.3
11606278
20725832
40600563
89344113
2.3466556e+08
8.4021777e+08
5.5347541e+09
1751.4946
3402.2174
1844.524
1525.902
1619.6215
2037.9235
3207.6043
7178.5969
15811.585
30841.896
53291.428
80031.34
109862.02
152243.61
226777.59
363764.82
610040.76
1051435.4
1677995.6
2431304.7
3368703.3
4738371.3
7102487.6
11605567
20725153
40599618
89342171
2.3466022e+08
8.4019686e+08
5.5346511e+09
1750.8074
3398.3131
1843.9414
1525.7997
1619.749
2038.108
3207.0593
7172.8298
15792.237
30806.229
53246.458
79984.93
109828.05
152228.9
226777.11
363780.75
610055.91
1051379.6
1677670.4
2430624.3
3367769.9
4737379.5
7101591.8
11604794
20724380
40598525
89339988
2.3465444e+08
8.401748e+08
5.5345379e+09
1750.118
3394.4165
1843.3564
1525.7037
1619.8867
2038.3082
3206.4712
7166.8888
15772.569
30770.149
53201.334
79938.722
109794.59
152214.99
226777.47
363797.32
610071.34
1051323.2
1677343.6
2429942.4
3366836.6
4736389.8
7100701.2
11604032
20723624
40597457
89337826
2.3464866e+08
8.4015271e+08
5.5344242e+09
1749.4264
3390.5276
1842.7694
1525.6142
1620.0343
2038.5223
3205.8398
7160.7664
15752.545
30733.615
53156.048
79892.712
109761.62
152201.8
226778.53
363814.12
610085.79
1051262.6
1677006.1
2429242.6
3365878
4735368.4
7099769.9
11603215
20722791
40596280
89335515
2.3464266e+08
8.4013025e+08
5.5343045e+09
1748.7325
3386.6463
1842.1808
1525.5317
1620.1916
2038.7492
3205.1635
7154.4529
15732.124
30696.589
53110.599
79846.917
109729.18
152189.39
226780.71
363832.33
610102.55
1051206.4
1676675.8
2428552.6
3364932.8
4734366.7
7098873.9
11602461
20722067
40595276
89333463
2.3463705e+08
8.4010849e+08
5.5341948e+09
1748.0363
3382.7726
1841.591
1525.4564
1620.3588
2038.9879
3204.4407
7147.9361
15711.257
30659.016
53064.981
79801.302
109697.22
152177.52
226783.66
363850.91
610118.68
1051146.8
1676336.7
2427847.8
3363965.7
4733335
7097935
11601643
20721240
40594108
89331159
2.3463101e+08
8.4008561e+08
5.5340756e+09
1747.3377
3378.9064
1841.0003
1525.3885
1620.5355
2039.2369
3203.6715
7141.2021
15689.892
30620.841
53019.191
79755.857
109665.72
152166.05
226787.48
363870.19
610135.1
1051086.3
1675995
2427140.5
3362999.1
4732307.9
7097006.6
11600842
20720442
40592981
89328888
2.3462497e+08
8.4006271e+08
5.5339568e+09
1746.6365
3375.0478
1840.4093
1525.3285
1620.7215
2039.4944
3202.8568
7134.2346
15667.985
30582.009
52973.206
79710.57
109634.7
152154.83
226792.08
363889.73
610150.52
1051021
1675640.8
2426412.3
3362003.4
4731245.6
7096034.6
11599986
20719569
40591752
89326488
2.3461877e+08
8.4003957e+08
5.5338326e+09
1745.9328
3371.1969
1839.8183
1525.2766
1620.9166
2039.7595
3201.995
7127.0163
15645.535
30542.487
52926.863
79665.448
109604.27
152144.46
226797.93
363910.99
610168.93
1050961.4
1675295.8
2425696.4
3361024.9
4730208.7
7095107
11599209
20718830
40590737
89324414
2.3461307e+08
8.4001728e+08
5.5337215e+09
1745.2264
3367.3539
1839.2277
1525.2331
1621.1214
2040.0323
3201.0823
7119.5274
15622.498
30502.212
52880.1
79620.431
109574.42
152134.96
226804.59
363932.69
610186.8
1050898.3
1674941.5
2424964.9
3360023.2
4729139.3
7094131.9
11598359
20717974
40589534
89322047
2.3460687e+08
8.399938e+08
5.5335996e+09
1744.5172
3363.5187
1838.6377
1525.198
1621.3362
2040.3123
3200.1159
7111.7465
15598.828
30461.123
52832.869
79575.487
109545.17
152126.35
226812.13
363955.09
610205.02
1050834.7
1674585.4
2424232.2
3359023.9
4728078
7093172.9
11597535
20717159
40588395
89319753
2.3460074e+08
8.3997044e+08
5.5334795e+09
1743.805
3359.6913
1838.0487
1525.1714
1621.561
2040.5992
3199.0937
7103.6516
15574.478
30419.156
52785.135
79530.595
109516.56
152118.61
226820.39
363977.65
610222
1050765.7
1674215.7
2423476.8
3357993.2
4726977.9
7092164.4
11596645
20716253
40587126
89317295
2.3459441e+08
8.399468e+08
5.5333532e+09
1743.0897
3355.8713
1837.4608
1525.1532
1621.7956
2040.8924
3198.0142
7095.2228
15549.405
30376.253
52736.856
79485.787
109488.66
152111.92
226829.88
364001.81
610241.73
1050702
1673854.8
2422733.5
3356979.6
4725903.5
7091201
11595833
20715476
40586060
89315130
2.345885e+08
8.3992377e+08
5.5332389e+09
1742.3712
3352.0579
1836.8739
1525.1432
1622.0395
2041.1906
3196.8776
7086.4381
15523.558
30332.352
52687.987
79441.101
109461.43
152106.16
226840.17
364026.3
610260.73
1050634.6
1673484.3
2421974.3
3355942.6
4724796.5
7090190.2
11594949
20714588
40584821
89312708
2.3458216e+08
8.3989976e+08
5.5331146e+09
1741.6491
3348.2498
1836.2879
1525.1414
1622.2914
2041.4921
3195.6861
7077.2753
15496.891
30287.399
52638.502
79396.607
109434.92
152101.4
226851.41
364051.56
610280.28
1050567
1673112.6
2421214.4
3354908.6
4723697.9
7089195.4
11594091
20713736
40583630
89310328
2.3457585e+08
8.3987579e+08
5.5329915e+09
1740.9233
3344.4454
1835.7024
1525.1474
1622.5499
2041.7948
3194.4429
7067.7147
15469.363
30241.339
52588.355
79352.294
109409.13
152097.61
226863.43
364077.02
610298.72
1050494.3
1672727.6
2420432.3
3353843.5
4722561.8
7088154.6
11593175
20712809
40582338
89307821
2.3456938e+08
8.3985158e+08
5.5328629e+09
1740.1934
3340.6427
1835.117
1525.1608
1622.8127
2042.0957
3193.155
7057.7387
15440.936
30194.123
52537.502
79308.177
109384.16
152094.98
226876.78
364104.22
610320.3
1050427.9
1672353
2419664.1
3352797.2
4721452.6
7087160.8
11592343
20712023
40581274
89305661
2.3456344e+08
8.3982827e+08
5.5327488e+09
1739.4594
3336.8396
1834.5313
1525.1811
1623.0763
2042.3891
3191.8346
7047.3305
15411.573
30145.696
52485.902
79264.23
109359.97
152093.35
226891.05
364131.85
610341.48
1050358.6
1671970.1
2418881.4
3351728.6
4720311.4
7086118.9
11591435
20711117
40580019
89303208
2.3455702e+08
8.3980385e+08
5.5326237e+09
1738.7208
3333.0337
1833.9447
1525.2077
1623.3359
2042.6677
3190.4989
7036.4763
15381.243
30096.018
52433.537
79220.459
109336.6
152092.7
226906.35
364160.17
610363.38
1050290.1
1671587
2418100
3350665.5
4719181.3
7085096.4
11590559
20710261
40578841
89300857
2.3455074e+08
8.3977981e+08
5.5325019e+09
1737.9775
3329.2229
1833.3568
1525.24
1623.5894
2042.9276
3189.1574
7025.1672
15349.919
30045.055
52380.388
79176.847
109314.04
152092.78
226922.48
364188.22
610383.95
1050217.6
1671190.4
2417296.2
3349571.5
4718013.4
7084025.6
11589618
20709315
40577535
89298345
2.3454427e+08
8.3975558e+08
5.5323741e+09
1737.2292
3325.405
1832.7671
1525.2774
1623.8455
2043.1863
3187.7741
7013.3978
15317.577
29992.783
52326.449
79133.386
109292.36
152093.3
226939.94
364217.28
610407.1
1050153
1670803.2
2416505.3
3348495.4
4716872.2
7083002.1
11588761
20708510
40576456
89296170
2.3453831e+08
8.3973212e+08
5.53226e+09
1736.4756
3321.5777
1832.1748
1525.3194
1624.1086
2043.4535
3186.333
7001.1628
15284.181
29939.159
52271.751
79090.016
109271.49
152093.52
226958.34
364246.82
610429.76
1050085.2
1670407.2
2415698.9
3347395.9
4715697.9
7081929.7
11587828
20707585
40575189
89293714
2.3453188e+08
8.3970763e+08
5.5321355e+09
1735.7163
3317.7384
1831.5791
1525.3654
1624.3788
2043.7312
3184.8369
6988.461
15249.688
29884.151
52216.386
79046.697
109251.48
152094.91
226977.87
364277.27
610453.17
1050017.7
1670010.7
2414893.2
3346300.7
4714532.8
7080873.9
11586921
20706701
40573979
89291318
2.3452552e+08
8.396833e+08
5.5320128e+09
1734.9512
3313.8847
1830.9786
1525.4151
1624.6555
2044.0211
3183.2916
6975.2964
15214.188
29827.821
52160.11
79003.359
109232.31
152097.47
226998.41
364308.12
610475.78
1049945.9
1669602.6
2414067.6
3345177.4
4713333.6
7079775.1
11585960
20705744
40572671
89288807
2.3451904e+08
8.3965895e+08
5.5318856e+09
1734.1798
3310.0142
1830.3723
1525.4681
1624.9383
2044.3251
3181.705
6961.6765
15177.694
29770.198
52102.903
78959.958
109214.13
152101.38
227020.45
364340.81
610501.63
1049880.5
1669205
2413255.9
3344072.8
4712161.2
7078723.4
11585082
20704929
40571594
89286647
2.345131e+08
8.3963547e+08
5.5317728e+09
1733.402
3306.1244
1829.7591
1525.5234
1625.2263
2044.6449
3180.0879
6947.6109
15140.222
29711.317
52044.746
78916.501
109196.89
152106.51
227043.57
364374.01
610527.03
1049812.2
1668799.7
2412430.6
3342947.1
4710958.2
7077625.4
11584131
20703996
40570332
89284202
2.3450669e+08
8.3961091e+08
5.5316498e+09
1732.6173
3302.2128
1829.1384
1525.5799
1625.518
2044.9807
3178.457
6933.1129
15101.797
29651.188
51985.717
78873.215
109180.61
152112.93
227067.88
364408.05
610553.05
1049744.2
1668394
2411606.5
3341826.4
4709764.9
7076543.9
11583206
20703104
40569128
89281829
2.3450036e+08
8.3958657e+08
5.531529e+09
1731.8255
3298.2771
1828.5092
1525.6366
1625.8098
2045.3293
3176.839
6918.1999
15062.455
29589.871
51925.843
78830.095
109165.3
152120.62
227093.23
364442.4
610577.97
1049671.2
1667976.3
2410762.8
3340678.7
4708538.5
7075419.5
11582224
20702132
40567813
89279321
2.3449388e+08
8.3956212e+08
5.5314031e+09
1731.0263
3294.3152
1827.8709
1525.6923
1626.0938
2045.6794
3175.2808
6902.8932
15022.238
29527.44
51865.161
78787.157
109151
152129.76
227120.13
364478.42
610605.6
1049603.4
1667567
2409930.5
3339546.9
4707335.6
7074336.7
11581314
20701281
40566688
89277091
2.3448781e+08
8.3953822e+08
5.531289e+09
1730.2195
3290.325
1827.2227
1525.746
1626.3529
2045.9995
3173.8707
6887.2169
14981.199
29463.969
51803.708
78744.375
109137.68
152140.24
227148.19
364514.95
610632.68
1049532.4
1667149.3
2409084.1
3338394.3
4706103.8
7073211.4
11580339
20700327
40565404
89274621
2.3448134e+08
8.3951334e+08
5.5311655e+09
1729.405
3286.3047
1826.564
1525.7969
1626.6086
2046.3333
3172.5344
6871.1988
14939.396
29399.551
51741.541
78701.755
109125.33
152152.11
227177.57
364552.36
610660.32
1049461.3
1666730.5
2408237.4
3337244.5
4704879.3
7072099.8
11579386
20699405
40564162
89272187
2.3447489e+08
8.3948855e+08
5.5310434e+09
1728.5825
3282.2533
1825.8943
1525.8443
1626.8721
2046.7029
3171.2456
6854.8675
14896.889
29334.29
51678.722
78659.296
109113.96
152165.38
227208.16
364590.29
610687.29
1049386.1
1666300.7
2407372.1
3336068.9
4703623.8
7070950.1
11578384
20698420
40562834
89269647
2.344683e+08
8.3946358e+08
5.5309165e+09
1727.7521
3278.1698
1825.213
1525.8874
1627.1447
2047.1127
3170.0185
6838.2533
14853.746
29268.297
51615.339
78616.988
109103.63
152180.22
227240.52
364630.21
610717.63
1049317.4
1665881.5
2406520.7
3334911.4
4702393.8
7069845
11577463
20697572
40561731
89267458
2.3446228e+08
8.3943958e+08
5.5308046e+09
1726.9137
3274.0538
1824.5198
1525.9255
1627.4271
2047.5681
3168.867
6821.3873
14810.033
29201.667
51551.485
78574.708
109094.24
152196.49
227274.21
364670.8
610747.79
1049246.3
1665455.2
2405656.7
3333734.3
4701135
7068695.6
11576471
20696609
40560440
89264970
2.3445573e+08
8.3941427e+08
5.5306817e+09
1726.0674
3269.9053
1823.8138
1525.9582
1627.7195
2048.0744
3167.8048
6804.303
14765.825
29134.524
51487.247
78532.247
109085.77
152214.21
227309.3
364712.24
610778.62
1049175.6
1665028.7
2404794.3
3332562.7
4699886.8
7067564.1
11575508
20695692
40559221
89262577
2.3444932e+08
8.3938929e+08
5.5305617e+09
1725.2133
3265.7245
1823.0943
1525.9857
1628.0224
2048.6366
3166.8452
6787.0341
14721.193
29066.999
51422.722
78489.741
109078.18
152233.3
227345.59
364753.82
610808.31
1049100
1664589.4
2403911.3
3331362.6
4698603.2
7066386.3
11574480
20694682
40557866
89260001
2.3444265e+08
8.3936392e+08
5.5304346e+09
1724.3515
3261.5124
1822.3608
1526.0081
1628.3359
2049.2593
3166
6769.6142
14676.215
28999.23
51358.027
78447.583
109071.51
152253.95
227383.64
364796.94
610841.1
1049031.1
1664160.1
2403042
3330182.2
4697348.5
7065258.9
11573542
20693823
40556757
89257796
2.3443655e+08
8.3933944e+08
5.5303226e+09
1723.4823
3257.2699
1821.6129
1526.0249
1628.6604
2049.9466
3165.2797
6752.0765
14630.963
28931.341
51293.248
78405.754
109065.66
152275.97
227423.01
364840.1
610873.09
1048959.5
1663721
2402156.8
3328978.4
4696060.3
7064079
11572521
20692830
40555427
89255244
2.3442984e+08
8.3931337e+08
5.5301976e+09
1722.606
3252.9983
1820.8507
1526.036
1628.9961
2050.7021
3164.6929
6734.4551
14585.515
28863.454
51228.493
78364.265
109060.56
152299.35
227463.86
364884.24
610905.47
1048887.5
1663281.1
2401273.1
3327780.7
4694783
7062916.6
11571525
20691876
40554154
89252751
2.3442317e+08
8.3928743e+08
5.5300737e+09
1721.7228
3248.6993
1820.0745
1526.0408
1629.3432
2051.5285
3164.2468
6716.7838
14539.947
28795.686
51163.88
78323.149
109056.19
152324.03
227506.1
364929.05
610936.89
1048810.2
1662828.6
2400369.2
3326555
4693470.8
7061708.2
11570468
20690835
40552760
89250105
2.3441633e+08
8.3926143e+08
5.5299434e+09
1720.8333
3244.3748
1819.2848
1526.039
1629.7017
2052.4282
3163.9466
6699.096
14494.333
28728.152
51099.518
78282.454
109052.55
152350.19
227550.38
364976.31
610972.15
1048740
1662388.2
2399482.9
3325354.3
4692195
7060561.2
11569517
20689973
40551657
89247907
2.3441021e+08
8.3923663e+08
5.5298317e+09
1719.9379
3240.0272
1818.4819
1526.0303
1630.0715
2053.403
3163.7947
6681.4213
14448.738
28660.952
51035.483
78242.149
109049.52
152377.56
227596.12
365024.46
611006.92
1048665.8
1661937.7
2398580
3324129.1
4690884.3
7059360.2
11568477
20688963
40550309
89245321
2.3440339e+08
8.3921008e+08
5.5297056e+09
1719.0371
3235.6588
1817.6663
1526.0146
1630.4524
2054.4543
3163.7912
6663.7879
14403.227
28594.179
50971.862
78202.249
109047.03
152406.07
227643.34
365073.77
611042.2
1048590.7
1661485.1
2397676.8
3322908.7
4689585.1
7058179.8
11567470
20688004
40549036
89242818
2.3439664e+08
8.391836e+08
5.5295811e+09
1718.1314
3231.2721
1816.8384
1525.9924
1630.8436
2055.5829
3163.9337
6646.2216
14357.86
28527.914
50908.747
78162.781
109045.01
152435.61
227691.81
365123.64
611076.06
1048508.7
1661016.7
2396748.2
3321653.3
4688241.9
7056941.5
11566383
20686929
40547592
89240079
2.3438956e+08
8.3915656e+08
5.5294467e+09
1717.2214
3226.8701
1815.9987
1525.9642
1631.2443
2056.7836
3164.2258
6628.746
14312.693
28462.228
50846.224
78123.806
109043.52
152466.31
227742.13
365175.88
611113.45
1048432.9
1660558.8
2395835
3320419.7
4686930.9
7055758.2
11565391
20686012
40546399
89237708
2.34383e+08
8.3913016e+08
5.5293275e+09
1716.3078
3222.4555
1815.1475
1525.9306
1631.6533
2058.0509
3164.6671
6611.3813
14267.773
28397.18
50784.334
78085.306
109042.43
152497.91
227793.74
365229.04
611150.44
1048353
1660091
2394905.6
3319161.6
4685583.3
7054518.1
11564309
20684951
40544974
89234977
2.3437582e+08
8.3910229e+08
5.5291937e+09
1715.3911
3218.0316
1814.2854
1525.8924
1632.0696
2059.38
3165.2548
6594.146
14223.149
28332.819
50723.137
78047.321
109041.72
152530.4
227846.73
365283.62
611188.6
1048273.4
1659622.9
2393978.6
3317911.6
4684250.8
7053301.7
11563261
20683938
40543616
89232318
2.3436873e+08
8.3907478e+08
5.5290616e+09
1714.472
3213.6015
1813.4136
1525.85
1632.4921
2060.766
3165.9834
6577.056
14178.864
28269.18
50662.684
78009.885
109041.36
152563.66
227900.9
365339.11
611226.18
1048188.3
1659140.8
2393028.5
3316629.7
4682878.9
7052034.6
11562146
20682832
40542128
89229487
2.3436141e+08
8.3904698e+08
5.5289216e+09
1713.5512
3209.1683
1812.5328
1525.8035
1632.9197
2062.2037
3166.8451
6560.1239
14134.953
28206.28
50603.013
77973.039
109041.4
152597.8
227956.75
365397.18
611268
1048110.5
1658670.7
2392095.6
3315372.3
4681543.1
7050829.2
11561138
20681908
40540933
89227106
2.3435479e+08
8.3902027e+08
5.5288005e+09
1712.6291
3204.7347
1811.6443
1525.7531
1633.3513
2063.6882
3167.83
6543.3587
14091.441
28144.128
50544.122
77936.758
109041.73
152632.55
228013.62
365456.17
611309.81
1048029
1658190.6
2391145.9
3314089.5
4680170.3
7049566.1
11560036
20680827
40539481
89224316
2.3434746e+08
8.3899185e+08
5.5286632e+09
1711.7065
3200.3038
1810.7492
1525.699
1633.7857
2065.2141
3168.9267
6526.7688
14048.354
28082.73
50486.016
77901.055
109042.33
152667.83
228071.49
365516.39
611352.87
1047947.9
1657709.7
2390197.4
3312813.4
4678811.4
7048326.6
11558971
20679804
40538117
89221638
2.3434027e+08
8.3896382e+08
5.5285285e+09
1710.7838
3195.8784
1809.8487
1525.6413
1634.2215
2066.7757
3170.1236
6510.3618
14005.712
28022.077
50428.692
77865.938
109043.17
152703.51
228130.01
365576.98
611395.14
1047860.9
1657213.5
2389223.5
3311501.9
4677407.6
7047027.4
11557823
20678661
40536576
89218718
2.3433275e+08
8.3893538e+08
5.5283834e+09
1709.8617
3191.4613
1808.9438
1525.5799
1634.6576
2068.3674
3171.409
6494.1455
13963.529
27962.152
50372.149
77831.437
109044.31
152739.72
228189.63
365639.5
611441.54
1047781.6
1656729
2388266.1
3310214
4676038.8
7045788.4
11556780
20677693
40535318
89216224
2.3432588e+08
8.3890795e+08
5.5282555e+09
1708.9407
3187.0552
1808.0357
1525.5151
1635.0926
2069.9838
3172.7719
6478.1258
13921.816
27902.927
50316.349
77797.508
109045.68
152776.19
228249.7
365702.22
611487.97
1047699.5
1656235.1
2387292.5
3308901.1
4674632.9
7044491.1
11555643
20676573
40533813
89213350
2.3431837e+08
8.3887909e+08
5.5281123e+09
1708.0212
3182.6633
1807.1254
1525.4471
1635.5256
2071.6197
3174.2023
6462.3077
13880.582
27844.375
50261.268
77764.146
109047.29
152812.91
228310.22
365765.4
611535.53
1047618.7
1655740.7
2386320.3
3307595.4
4673240.5
7043215.3
11554538
20675500
40532374
89210543
2.3431093e+08
8.3885048e+08
5.5279701e+09
1707.1037
3178.2888
1806.2136
1525.3761
1635.9554
2073.2707
3175.6916
6446.6967
13839.838
27786.457
50206.882
77731.352
109049.14
152849.77
228370.94
365828.61
611582.2
1047532.8
1655232.9
2385325.7
3306258.4
4671808.7
7041888
11553363
20674330
40530799
89207561
2.3430328e+08
8.3882179e+08
5.5278196e+09
1706.1885
3173.9346
1805.301
1525.3023
1636.3811
2074.9332
3177.2324
6431.2981
13799.604
27729.118
50153.171
77699.16
109051.3
152886.95
228432.37
365893.45
611632.62
1047454.2
1654737
2384347.2
3304943.7
4670410.1
7040617.8
11552289
20673329
40529498
89204997
2.3429628e+08
8.3879411e+08
5.5276862e+09
1705.276
3169.6037
1804.3886
1525.2259
1636.8019
2076.6039
3178.818
6416.1179
13759.872
27672.325
50100.096
77667.541
109053.74
152924.25
228493.94
365958.33
611682.66
1047372.7
1654232.7
2383353.5
3303605.2
4668976.2
7039292.6
11551126
20672182
40527959
89202064
2.3428864e+08
8.3876502e+08
5.5275381e+09
1704.3665
3165.2991
1803.4771
1525.1467
1637.2172
2078.2801
3180.4431
6401.1626
13720.63
27616.062
50047.633
77636.506
109056.47
152961.69
228555.61
366023.42
611733.34
1047291.8
1653728.4
2382361.3
3302272.4
4667553.3
7037986.1
11549991
20671079
40526486
89199203
2.342811e+08
8.3873625e+08
5.527391e+09
1703.4603
3161.0239
1802.5673
1525.0645
1637.6266
2079.9598
3182.1044
6386.4371
13681.88
27560.294
49995.76
77606.067
109059.5
152999.2
228617.12
366088.02
611782.83
1047206.3
1653212.3
2381348.9
3300910.8
4666094.1
7036631
11548789
20669881
40524875
89196169
2.3427334e+08
8.3870736e+08
5.5272361e+09
1702.5574
3156.7807
1801.6597
1524.9792
1638.0299
2081.6418
3183.8011
6371.9456
13643.604
27505.012
49944.467
77576.262
109062.94
153036.96
228678.89
366153.42
611835.06
1047126.9
1652706.1
2380349.4
3299566.8
4664660.6
7035321
11547666
20668813
40523473
89193439
2.3426604e+08
8.3867912e+08
5.5270938e+09
1701.6581
3152.5718
1800.755
1524.8906
1638.4267
2083.3256
3185.5336
6357.6916
13605.795
27450.187
49893.723
77547.074
109066.75
153074.84
228740.46
366218.24
611886.51
1047045
1652193.1
2379337.5
3298203.1
4663198
7033966.2
11546472
20667633
40521892
89190443
2.342583e+08
8.3864995e+08
5.5269402e+09
1700.7625
3148.3997
1799.8534
1524.7989
1638.8169
2085.0112
3187.3038
6343.6773
13568.442
27395.806
49843.51
77518.501
109070.98
153112.89
228801.83
366282.59
611937.96
1046963.4
1651680.1
2378326.6
3296843.4
4661743.6