/*--------------------------------*- C++ -*----------------------------------*\
| =========                 |                                                 |
| \\      /  F ield         | OpenFOAM: The Open Source CFD Toolbox           |
|  \\    /   O peration     | Version:  v2012                                 |
|   \\  /    A nd           | Website:  www.openfoam.com                      |
|    \\/     M anipulation  |                                                 |
\*---------------------------------------------------------------------------*/
FoamFile
{
    version     2.0;
    format      ascii;
    class       volScalarField;
    location    "100";
    object      p;
}
// * * * * * * * * * * * * * * * * * * * * * * * * * * * * * * * * * * * * * //

dimensions      [1 -1 -2 0 0 0 0];


internalField   nonuniform List<scalar> 
24000
(
2509007.5
2509006.1
2509003.7
2509002.1
2509000.1
2508997.8
2508993.6
2508987.4
2508982.4
2508979.1
2508977.6
2508977.1
2508977.3
2508977.8
2508978.2
2508978.6
2508978.9
2508979.2
2508979.4
2508979.5
2508979.5
2508979.6
2508979.6
2508979.6
2508979.6
2508979.6
2508979.6
2508979.6
2508979.6
2508979.6
2509046.2
2509045.6
2509044.2
2509043.7
2509043
2509042
2509041
2509040
2509039.4
2509039.3
2509039.7
2509040.5
2509041.4
2509042.3
2509043.1
2509043.8
2509044.4
2509044.8
2509045.2
2509045.4
2509045.6
2509045.7
2509045.7
2509045.7
2509045.7
2509045.7
2509045.7
2509045.7
2509045.7
2509045.7
2509080.5
2509080
2509078.7
2509077.7
2509076.7
2509075.8
2509075.4
2509074.8
2509074.3
2509074.1
2509074.1
2509074.3
2509074.4
2509074.6
2509074.7
2509074.7
2509074.7
2509074.7
2509074.7
2509074.7
2509074.7
2509074.7
2509074.6
2509074.6
2509074.6
2509074.6
2509074.6
2509074.6
2509074.6
2509074.6
2509115.9
2509115.4
2509114.5
2509113.8
2509113
2509112.3
2509112
2509111.7
2509111.5
2509111.4
2509111.4
2509111.4
2509111.5
2509111.5
2509111.6
2509111.6
2509111.7
2509111.7
2509111.7
2509111.7
2509111.7
2509111.7
2509111.8
2509111.8
2509111.8
2509111.8
2509111.8
2509111.8
2509111.8
2509111.8
2509151.1
2509150.6
2509149.9
2509149.3
2509148.6
2509148.1
2509147.8
2509147.7
2509147.5
2509147.3
2509147.3
2509147.2
2509147.2
2509147.2
2509147.2
2509147.2
2509147.2
2509147.2
2509147.2
2509147.2
2509147.2
2509147.2
2509147.2
2509147.2
2509147.2
2509147.2
2509147.2
2509147.2
2509147.2
2509147.2
2509186.3
2509185.9
2509185.3
2509184.8
2509184.2
2509183.8
2509183.6
2509183.4
2509183.3
2509183.2
2509183.1
2509183
2509182.9
2509182.9
2509182.9
2509182.9
2509182.9
2509182.9
2509182.9
2509182.9
2509182.9
2509182.9
2509182.9
2509182.9
2509182.9
2509182.9
2509182.9
2509182.9
2509182.9
2509182.9
2509221.4
2509221.1
2509220.6
2509220.2
2509219.7
2509219.3
2509219.1
2509219
2509218.9
2509218.8
2509218.6
2509218.6
2509218.5
2509218.5
2509218.5
2509218.5
2509218.5
2509218.5
2509218.5
2509218.5
2509218.5
2509218.5
2509218.5
2509218.5
2509218.5
2509218.5
2509218.5
2509218.5
2509218.5
2509218.5
2509256.5
2509256.2
2509255.8
2509255.5
2509255
2509254.7
2509254.5
2509254.4
2509254.3
2509254.2
2509254.1
2509254
2509254
2509254
2509253.9
2509253.9
2509253.9
2509253.9
2509253.9
2509253.9
2509253.9
2509253.9
2509253.9
2509253.9
2509253.9
2509253.9
2509253.9
2509253.9
2509253.9
2509253.9
2509291.5
2509291.2
2509290.9
2509290.6
2509290.2
2509289.9
2509289.8
2509289.7
2509289.6
2509289.5
2509289.4
2509289.3
2509289.3
2509289.3
2509289.2
2509289.2
2509289.2
2509289.2
2509289.2
2509289.2
2509289.2
2509289.2
2509289.2
2509289.2
2509289.2
2509289.2
2509289.2
2509289.2
2509289.2
2509289.2
2509326.3
2509326.1
2509325.8
2509325.6
2509325.3
2509325
2509324.9
2509324.8
2509324.7
2509324.7
2509324.6
2509324.5
2509324.5
2509324.4
2509324.4
2509324.4
2509324.4
2509324.4
2509324.4
2509324.4
2509324.4
2509324.4
2509324.4
2509324.4
2509324.4
2509324.4
2509324.4
2509324.4
2509324.4
2509324.4
2509361.1
2509360.8
2509360.6
2509360.4
2509360.1
2509359.9
2509359.8
2509359.8
2509359.7
2509359.6
2509359.6
2509359.5
2509359.5
2509359.4
2509359.4
2509359.4
2509359.4
2509359.4
2509359.4
2509359.4
2509359.4
2509359.4
2509359.4
2509359.4
2509359.4
2509359.4
2509359.4
2509359.4
2509359.4
2509359.4
2509395.7
2509395.5
2509395.3
2509395.1
2509394.9
2509394.7
2509394.6
2509394.6
2509394.5
2509394.4
2509394.4
2509394.3
2509394.3
2509394.3
2509394.3
2509394.2
2509394.2
2509394.2
2509394.2
2509394.2
2509394.2
2509394.2
2509394.2
2509394.2
2509394.2
2509394.2
2509394.2
2509394.2
2509394.2
2509394.2
2509430.1
2509430
2509429.8
2509429.7
2509429.5
2509429.3
2509429.2
2509429.2
2509429.1
2509429.1
2509429
2509429
2509429
2509428.9
2509428.9
2509428.9
2509428.9
2509428.9
2509428.9
2509428.9
2509428.9
2509428.9
2509428.9
2509428.9
2509428.9
2509428.9
2509428.9
2509428.9
2509428.9
2509428.9
2509464.4
2509464.3
2509464.2
2509464
2509463.9
2509463.7
2509463.7
2509463.6
2509463.6
2509463.6
2509463.5
2509463.5
2509463.4
2509463.4
2509463.4
2509463.4
2509463.4
2509463.4
2509463.4
2509463.4
2509463.4
2509463.4
2509463.4
2509463.4
2509463.4
2509463.4
2509463.4
2509463.4
2509463.4
2509463.4
2509498.6
2509498.5
2509498.4
2509498.2
2509498.1
2509498
2509497.9
2509497.9
2509497.9
2509497.9
2509497.8
2509497.8
2509497.7
2509497.7
2509497.7
2509497.7
2509497.7
2509497.7
2509497.7
2509497.7
2509497.7
2509497.7
2509497.7
2509497.7
2509497.7
2509497.7
2509497.7
2509497.7
2509497.7
2509497.7
2509532.6
2509532.5
2509532.4
2509532.3
2509532.2
2509532.1
2509532
2509532
2509532
2509532
2509531.9
2509531.9
2509531.9
2509531.8
2509531.8
2509531.8
2509531.8
2509531.8
2509531.8
2509531.8
2509531.8
2509531.8
2509531.8
2509531.8
2509531.8
2509531.8
2509531.8
2509531.8
2509531.8
2509531.8
2509566.4
2509566.3
2509566.2
2509566.1
2509566
2509566
2509565.9
2509565.9
2509565.9
2509565.9
2509565.8
2509565.8
2509565.8
2509565.8
2509565.7
2509565.7
2509565.7
2509565.7
2509565.7
2509565.7
2509565.7
2509565.7
2509565.7
2509565.7
2509565.7
2509565.7
2509565.7
2509565.7
2509565.7
2509565.7
2509600.1
2509600
2509599.9
2509599.8
2509599.8
2509599.7
2509599.7
2509599.7
2509599.6
2509599.6
2509599.6
2509599.5
2509599.5
2509599.5
2509599.5
2509599.5
2509599.5
2509599.5
2509599.5
2509599.5
2509599.5
2509599.5
2509599.5
2509599.5
2509599.5
2509599.5
2509599.5
2509599.5
2509599.5
2509599.5
2509633.6
2509633.5
2509633.4
2509633.3
2509633.3
2509633.2
2509633.2
2509633.2
2509633.2
2509633.2
2509633.1
2509633.1
2509633.1
2509633
2509633
2509633
2509633
2509633
2509633
2509633
2509633
2509633
2509633
2509633
2509633
2509633
2509633
2509633
2509633
2509633
2509666.9
2509666.8
2509666.7
2509666.7
2509666.6
2509666.6
2509666.5
2509666.6
2509666.5
2509666.5
2509666.5
2509666.4
2509666.4
2509666.4
2509666.4
2509666.4
2509666.4
2509666.4
2509666.4
2509666.4
2509666.4
2509666.4
2509666.4
2509666.4
2509666.4
2509666.4
2509666.4
2509666.4
2509666.4
2509666.4
2509700
2509699.9
2509699.9
2509699.8
2509699.8
2509699.7
2509699.7
2509699.7
2509699.7
2509699.7
2509699.6
2509699.6
2509699.6
2509699.6
2509699.6
2509699.5
2509699.5
2509699.5
2509699.5
2509699.5
2509699.5
2509699.5
2509699.5
2509699.5
2509699.5
2509699.5
2509699.5
2509699.5
2509699.5
2509699.5
2509733
2509732.9
2509732.8
2509732.8
2509732.7
2509732.7
2509732.7
2509732.7
2509732.7
2509732.7
2509732.6
2509732.6
2509732.6
2509732.6
2509732.5
2509732.5
2509732.5
2509732.5
2509732.5
2509732.5
2509732.5
2509732.5
2509732.5
2509732.5
2509732.5
2509732.5
2509732.5
2509732.5
2509732.5
2509732.5
2509765.7
2509765.6
2509765.6
2509765.6
2509765.5
2509765.5
2509765.5
2509765.5
2509765.5
2509765.5
2509765.4
2509765.4
2509765.4
2509765.3
2509765.3
2509765.3
2509765.3
2509765.3
2509765.3
2509765.3
2509765.3
2509765.3
2509765.3
2509765.3
2509765.3
2509765.3
2509765.3
2509765.3
2509765.3
2509765.3
2509798.3
2509798.2
2509798.2
2509798.2
2509798.1
2509798.1
2509798.1
2509798.1
2509798.1
2509798.1
2509798
2509798
2509798
2509798
2509797.9
2509797.9
2509797.9
2509797.9
2509797.9
2509797.9
2509797.9
2509797.9
2509797.9
2509797.9
2509797.9
2509797.9
2509797.9
2509797.9
2509797.9
2509797.9
2509830.7
2509830.6
2509830.6
2509830.6
2509830.5
2509830.5
2509830.5
2509830.5
2509830.5
2509830.5
2509830.4
2509830.4
2509830.4
2509830.4
2509830.4
2509830.4
2509830.3
2509830.3
2509830.3
2509830.3
2509830.3
2509830.3
2509830.3
2509830.3
2509830.3
2509830.3
2509830.3
2509830.3
2509830.3
2509830.3
2509863
2509862.9
2509862.9
2509862.8
2509862.8
2509862.7
2509862.7
2509862.7
2509862.7
2509862.7
2509862.7
2509862.6
2509862.6
2509862.6
2509862.6
2509862.6
2509862.6
2509862.6
2509862.6
2509862.6
2509862.6
2509862.6
2509862.6
2509862.6
2509862.6
2509862.6
2509862.6
2509862.6
2509862.6
2509862.6
2509895
2509894.9
2509894.9
2509894.8
2509894.8
2509894.8
2509894.8
2509894.8
2509894.8
2509894.8
2509894.7
2509894.7
2509894.7
2509894.6
2509894.6
2509894.6
2509894.6
2509894.6
2509894.6
2509894.6
2509894.6
2509894.6
2509894.6
2509894.6
2509894.6
2509894.6
2509894.6
2509894.6
2509894.6
2509894.6
2509926.9
2509926.8
2509926.8
2509926.7
2509926.7
2509926.6
2509926.6
2509926.6
2509926.6
2509926.6
2509926.6
2509926.6
2509926.5
2509926.5
2509926.5
2509926.5
2509926.5
2509926.5
2509926.5
2509926.5
2509926.5
2509926.5
2509926.5
2509926.5
2509926.5
2509926.5
2509926.5
2509926.5
2509926.5
2509926.5
2509958.6
2509958.5
2509958.4
2509958.4
2509958.3
2509958.3
2509958.3
2509958.3
2509958.3
2509958.3
2509958.3
2509958.2
2509958.2
2509958.2
2509958.2
2509958.2
2509958.2
2509958.2
2509958.2
2509958.2
2509958.2
2509958.2
2509958.2
2509958.2
2509958.2
2509958.2
2509958.2
2509958.2
2509958.2
2509958.2
2509990.1
2509989.9
2509989.9
2509989.9
2509989.8
2509989.8
2509989.8
2509989.8
2509989.8
2509989.8
2509989.7
2509989.7
2509989.7
2509989.7
2509989.7
2509989.7
2509989.7
2509989.7
2509989.6
2509989.6
2509989.6
2509989.6
2509989.6
2509989.6
2509989.6
2509989.6
2509989.6
2509989.6
2509989.6
2509989.6
2510021.4
2510021.3
2510021.2
2510021.2
2510021.1
2510021.1
2510021.1
2510021.1
2510021.1
2510021.1
2510021.1
2510021
2510021
2510021
2510021
2510021
2510021
2510021
2510021
2510021
2510021
2510021
2510021
2510021
2510021
2510021
2510021
2510021
2510021
2510021
2510052.5
2510052.4
2510052.4
2510052.3
2510052.3
2510052.2
2510052.2
2510052.2
2510052.2
2510052.2
2510052.2
2510052.2
2510052.1
2510052.1
2510052.1
2510052.1
2510052.1
2510052.1
2510052.1
2510052.1
2510052.1
2510052.1
2510052.1
2510052.1
2510052.1
2510052.1
2510052.1
2510052.1
2510052.1
2510052.1
2510083.4
2510083.3
2510083.3
2510083.2
2510083.2
2510083.2
2510083.2
2510083.2
2510083.2
2510083.2
2510083.1
2510083.1
2510083.1
2510083.1
2510083
2510083
2510083
2510083
2510083
2510083
2510083
2510083
2510083
2510083
2510083
2510083
2510083
2510083
2510083
2510083
2510114.2
2510114.1
2510114.1
2510114
2510114
2510114
2510113.9
2510114
2510114
2510113.9
2510113.9
2510113.9
2510113.8
2510113.8
2510113.8
2510113.8
2510113.8
2510113.8
2510113.8
2510113.8
2510113.8
2510113.8
2510113.8
2510113.8
2510113.8
2510113.8
2510113.8
2510113.8
2510113.8
2510113.8
2510144.8
2510144.7
2510144.7
2510144.6
2510144.5
2510144.5
2510144.5
2510144.5
2510144.5
2510144.5
2510144.5
2510144.4
2510144.4
2510144.4
2510144.4
2510144.4
2510144.4
2510144.4
2510144.4
2510144.4
2510144.4
2510144.4
2510144.4
2510144.4
2510144.4
2510144.4
2510144.4
2510144.4
2510144.4
2510144.4
2510175.2
2510175.1
2510175.1
2510175
2510174.9
2510174.9
2510174.9
2510174.9
2510174.9
2510174.9
2510174.9
2510174.8
2510174.8
2510174.8
2510174.8
2510174.8
2510174.8
2510174.8
2510174.8
2510174.8
2510174.8
2510174.8
2510174.8
2510174.8
2510174.8
2510174.8
2510174.8
2510174.8
2510174.8
2510174.8
2510205.4
2510205.3
2510205.3
2510205.2
2510205.2
2510205.1
2510205.1
2510205.2
2510205.2
2510205.1
2510205.1
2510205.1
2510205
2510205
2510205
2510205
2510205
2510205
2510205
2510205
2510205
2510205
2510205
2510205
2510205
2510205
2510205
2510205
2510205
2510205
2510235.5
2510235.4
2510235.3
2510235.2
2510235.2
2510235.2
2510235.2
2510235.2
2510235.2
2510235.2
2510235.1
2510235.1
2510235.1
2510235.1
2510235.1
2510235
2510235
2510235
2510235
2510235
2510235
2510235
2510235
2510235
2510235
2510235
2510235
2510235
2510235
2510235
2510265.3
2510265.2
2510265.2
2510265.1
2510265.1
2510265
2510265
2510265
2510265
2510265
2510265
2510265
2510264.9
2510264.9
2510264.9
2510264.9
2510264.9
2510264.9
2510264.9
2510264.9
2510264.9
2510264.9
2510264.9
2510264.9
2510264.9
2510264.9
2510264.9
2510264.9
2510264.9
2510264.9
2510295
2510294.9
2510294.9
2510294.8
2510294.7
2510294.7
2510294.7
2510294.7
2510294.7
2510294.7
2510294.7
2510294.6
2510294.6
2510294.6
2510294.6
2510294.6
2510294.6
2510294.6
2510294.6
2510294.6
2510294.6
2510294.6
2510294.6
2510294.6
2510294.6
2510294.6
2510294.6
2510294.6
2510294.6
2510294.6
2510324.5
2510324.4
2510324.4
2510324.3
2510324.2
2510324.2
2510324.2
2510324.2
2510324.2
2510324.2
2510324.2
2510324.1
2510324.1
2510324.1
2510324.1
2510324.1
2510324.1
2510324.1
2510324.1
2510324.1
2510324.1
2510324.1
2510324.1
2510324.1
2510324.1
2510324.1
2510324.1
2510324.1
2510324.1
2510324.1
2510353.8
2510353.7
2510353.7
2510353.6
2510353.5
2510353.5
2510353.5
2510353.5
2510353.5
2510353.5
2510353.5
2510353.4
2510353.4
2510353.4
2510353.4
2510353.4
2510353.4
2510353.4
2510353.4
2510353.4
2510353.4
2510353.4
2510353.4
2510353.4
2510353.4
2510353.4
2510353.4
2510353.4
2510353.4
2510353.4
2510383
2510382.9
2510382.8
2510382.7
2510382.7
2510382.6
2510382.6
2510382.7
2510382.7
2510382.6
2510382.6
2510382.6
2510382.6
2510382.5
2510382.5
2510382.5
2510382.5
2510382.5
2510382.5
2510382.5
2510382.5
2510382.5
2510382.5
2510382.5
2510382.5
2510382.5
2510382.5
2510382.5
2510382.5
2510382.5
2510411.9
2510411.8
2510411.8
2510411.7
2510411.6
2510411.6
2510411.6
2510411.6
2510411.6
2510411.6
2510411.6
2510411.5
2510411.5
2510411.5
2510411.5
2510411.5
2510411.5
2510411.5
2510411.5
2510411.5
2510411.5
2510411.5
2510411.5
2510411.5
2510411.5
2510411.5
2510411.5
2510411.5
2510411.5
2510411.5
2510440.7
2510440.6
2510440.5
2510440.4
2510440.4
2510440.4
2510440.4
2510440.4
2510440.4
2510440.4
2510440.3
2510440.3
2510440.3
2510440.3
2510440.2
2510440.2
2510440.2
2510440.2
2510440.2
2510440.2
2510440.2
2510440.2
2510440.2
2510440.2
2510440.2
2510440.2
2510440.2
2510440.2
2510440.2
2510440.2
2510469.3
2510469.2
2510469.1
2510469
2510469
2510469
2510468.9
2510469
2510469
2510468.9
2510468.9
2510468.9
2510468.9
2510468.8
2510468.8
2510468.8
2510468.8
2510468.8
2510468.8
2510468.8
2510468.8
2510468.8
2510468.8
2510468.8
2510468.8
2510468.8
2510468.8
2510468.8
2510468.8
2510468.8
2510497.7
2510497.6
2510497.5
2510497.4
2510497.4
2510497.4
2510497.3
2510497.4
2510497.4
2510497.4
2510497.3
2510497.3
2510497.3
2510497.3
2510497.2
2510497.2
2510497.2
2510497.2
2510497.2
2510497.2
2510497.2
2510497.2
2510497.2
2510497.2
2510497.2
2510497.2
2510497.2
2510497.2
2510497.2
2510497.2
2510525.9
2510525.8
2510525.8
2510525.7
2510525.6
2510525.6
2510525.6
2510525.6
2510525.6
2510525.6
2510525.6
2510525.5
2510525.5
2510525.5
2510525.5
2510525.5
2510525.5
2510525.5
2510525.5
2510525.5
2510525.5
2510525.5
2510525.5
2510525.5
2510525.5
2510525.5
2510525.5
2510525.5
2510525.5
2510525.5
2510554
2510553.9
2510553.8
2510553.7
2510553.7
2510553.6
2510553.6
2510553.7
2510553.6
2510553.6
2510553.6
2510553.6
2510553.5
2510553.5
2510553.5
2510553.5
2510553.5
2510553.5
2510553.5
2510553.5
2510553.5
2510553.5
2510553.5
2510553.5
2510553.5
2510553.5
2510553.5
2510553.5
2510553.5
2510553.5
2510581.8
2510581.7
2510581.7
2510581.6
2510581.5
2510581.5
2510581.5
2510581.5
2510581.5
2510581.5
2510581.5
2510581.4
2510581.4
2510581.4
2510581.4
2510581.4
2510581.4
2510581.4
2510581.4
2510581.4
2510581.4
2510581.4
2510581.4
2510581.4
2510581.4
2510581.4
2510581.4
2510581.4
2510581.4
2510581.4
2510609.5
2510609.4
2510609.4
2510609.3
2510609.2
2510609.2
2510609.2
2510609.2
2510609.2
2510609.2
2510609.1
2510609.1
2510609.1
2510609.1
2510609.1
2510609.1
2510609.1
2510609.1
2510609
2510609
2510609
2510609
2510609
2510609
2510609
2510609
2510609
2510609
2510609
2510609
2510637
2510636.9
2510636.9
2510636.8
2510636.7
2510636.7
2510636.7
2510636.7
2510636.7
2510636.7
2510636.7
2510636.6
2510636.6
2510636.6
2510636.6
2510636.6
2510636.6
2510636.6
2510636.6
2510636.6
2510636.6
2510636.6
2510636.6
2510636.6
2510636.6
2510636.6
2510636.6
2510636.6
2510636.6
2510636.6
2510664.4
2510664.3
2510664.2
2510664.1
2510664
2510664
2510664
2510664
2510664
2510664
2510664
2510663.9
2510663.9
2510663.9
2510663.9
2510663.9
2510663.9
2510663.9
2510663.9
2510663.9
2510663.9
2510663.9
2510663.9
2510663.9
2510663.9
2510663.9
2510663.9
2510663.9
2510663.9
2510663.9
2510691.5
2510691.4
2510691.3
2510691.2
2510691.2
2510691.2
2510691.1
2510691.2
2510691.2
2510691.1
2510691.1
2510691.1
2510691.1
2510691
2510691
2510691
2510691
2510691
2510691
2510691
2510691
2510691
2510691
2510691
2510691
2510691
2510691
2510691
2510691
2510691
2510718.5
2510718.4
2510718.3
2510718.2
2510718.1
2510718.1
2510718.1
2510718.1
2510718.1
2510718.1
2510718.1
2510718
2510718
2510718
2510718
2510718
2510718
2510718
2510718
2510718
2510718
2510718
2510718
2510718
2510718
2510718
2510718
2510718
2510718
2510718
2510745.2
2510745.1
2510745.1
2510745
2510744.9
2510744.9
2510744.9
2510744.9
2510744.9
2510744.9
2510744.8
2510744.8
2510744.8
2510744.8
2510744.8
2510744.8
2510744.8
2510744.8
2510744.7
2510744.7
2510744.7
2510744.7
2510744.7
2510744.7
2510744.7
2510744.7
2510744.7
2510744.7
2510744.7
2510744.7
2510771.8
2510771.7
2510771.7
2510771.6
2510771.5
2510771.5
2510771.5
2510771.5
2510771.5
2510771.5
2510771.4
2510771.4
2510771.4
2510771.4
2510771.4
2510771.3
2510771.3
2510771.3
2510771.3
2510771.3
2510771.3
2510771.3
2510771.3
2510771.3
2510771.3
2510771.3
2510771.3
2510771.3
2510771.3
2510771.3
2510798.2
2510798.1
2510798.1
2510798
2510797.9
2510797.9
2510797.9
2510797.9
2510797.9
2510797.9
2510797.8
2510797.8
2510797.8
2510797.8
2510797.8
2510797.8
2510797.8
2510797.7
2510797.7
2510797.7
2510797.7
2510797.7
2510797.7
2510797.7
2510797.7
2510797.7
2510797.7
2510797.7
2510797.7
2510797.7
2510824.5
2510824.4
2510824.3
2510824.2
2510824.1
2510824.1
2510824.1
2510824.1
2510824.1
2510824.1
2510824.1
2510824
2510824
2510824
2510824
2510824
2510824
2510824
2510824
2510824
2510824
2510824
2510824
2510824
2510824
2510824
2510824
2510824
2510824
2510824
2510850.5
2510850.4
2510850.4
2510850.2
2510850.2
2510850.1
2510850.1
2510850.2
2510850.2
2510850.1
2510850.1
2510850.1
2510850.1
2510850
2510850
2510850
2510850
2510850
2510850
2510850
2510850
2510850
2510850
2510850
2510850
2510850
2510850
2510850
2510850
2510850
2510876.4
2510876.3
2510876.2
2510876.1
2510876
2510876
2510876
2510876
2510876
2510876
2510876
2510875.9
2510875.9
2510875.9
2510875.9
2510875.9
2510875.9
2510875.9
2510875.9
2510875.9
2510875.9
2510875.9
2510875.9
2510875.9
2510875.9
2510875.9
2510875.9
2510875.9
2510875.9
2510875.9
2510902
2510901.9
2510901.9
2510901.8
2510901.7
2510901.7
2510901.7
2510901.7
2510901.7
2510901.7
2510901.7
2510901.6
2510901.6
2510901.6
2510901.6
2510901.6
2510901.6
2510901.6
2510901.6
2510901.6
2510901.5
2510901.5
2510901.5
2510901.5
2510901.5
2510901.5
2510901.5
2510901.5
2510901.5
2510901.5
2510927.5
2510927.4
2510927.4
2510927.3
2510927.2
2510927.2
2510927.2
2510927.2
2510927.2
2510927.2
2510927.1
2510927.1
2510927.1
2510927.1
2510927.1
2510927.1
2510927
2510927
2510927
2510927
2510927
2510927
2510927
2510927
2510927
2510927
2510927
2510927
2510927
2510927
2510952.8
2510952.7
2510952.7
2510952.6
2510952.5
2510952.5
2510952.5
2510952.5
2510952.5
2510952.5
2510952.5
2510952.4
2510952.4
2510952.4
2510952.4
2510952.4
2510952.4
2510952.4
2510952.4
2510952.4
2510952.4
2510952.4
2510952.4
2510952.4
2510952.4
2510952.4
2510952.4
2510952.4
2510952.4
2510952.4
2510978
2510977.9
2510977.8
2510977.7
2510977.6
2510977.6
2510977.6
2510977.6
2510977.6
2510977.6
2510977.6
2510977.5
2510977.5
2510977.5
2510977.5
2510977.5
2510977.5
2510977.5
2510977.5
2510977.5
2510977.5
2510977.5
2510977.5
2510977.5
2510977.5
2510977.5
2510977.5
2510977.5
2510977.5
2510977.5
2511002.9
2511002.8
2511002.8
2511002.6
2511002.6
2511002.5
2511002.5
2511002.6
2511002.6
2511002.5
2511002.5
2511002.5
2511002.5
2511002.4
2511002.4
2511002.4
2511002.4
2511002.4
2511002.4
2511002.4
2511002.4
2511002.4
2511002.4
2511002.4
2511002.4
2511002.4
2511002.4
2511002.4
2511002.4
2511002.4
2511027.7
2511027.5
2511027.5
2511027.4
2511027.3
2511027.3
2511027.3
2511027.3
2511027.3
2511027.3
2511027.3
2511027.2
2511027.2
2511027.2
2511027.2
2511027.2
2511027.2
2511027.2
2511027.2
2511027.2
2511027.2
2511027.2
2511027.2
2511027.2
2511027.2
2511027.2
2511027.2
2511027.2
2511027.2
2511027.2
2511052.2
2511052.1
2511052.1
2511052
2511051.9
2511051.9
2511051.8
2511051.9
2511051.9
2511051.9
2511051.8
2511051.8
2511051.8
2511051.8
2511051.7
2511051.7
2511051.7
2511051.7
2511051.7
2511051.7
2511051.7
2511051.7
2511051.7
2511051.7
2511051.7
2511051.7
2511051.7
2511051.7
2511051.7
2511051.7
2511076.6
2511076.5
2511076.5
2511076.3
2511076.3
2511076.2
2511076.2
2511076.3
2511076.3
2511076.2
2511076.2
2511076.2
2511076.2
2511076.1
2511076.1
2511076.1
2511076.1
2511076.1
2511076.1
2511076.1
2511076.1
2511076.1
2511076.1
2511076.1
2511076.1
2511076.1
2511076.1
2511076.1
2511076.1
2511076.1
2511100.8
2511100.7
2511100.7
2511100.5
2511100.5
2511100.4
2511100.4
2511100.5
2511100.5
2511100.4
2511100.4
2511100.4
2511100.3
2511100.3
2511100.3
2511100.3
2511100.3
2511100.3
2511100.3
2511100.3
2511100.3
2511100.3
2511100.3
2511100.3
2511100.3
2511100.3
2511100.3
2511100.3
2511100.3
2511100.3
2511124.8
2511124.7
2511124.7
2511124.5
2511124.5
2511124.4
2511124.4
2511124.5
2511124.5
2511124.4
2511124.4
2511124.4
2511124.4
2511124.3
2511124.3
2511124.3
2511124.3
2511124.3
2511124.3
2511124.3
2511124.3
2511124.3
2511124.3
2511124.3
2511124.3
2511124.3
2511124.3
2511124.3
2511124.3
2511124.3
2511148.6
2511148.5
2511148.5
2511148.4
2511148.3
2511148.3
2511148.2
2511148.3
2511148.3
2511148.3
2511148.2
2511148.2
2511148.2
2511148.2
2511148.2
2511148.2
2511148.1
2511148.1
2511148.1
2511148.1
2511148.1
2511148.1
2511148.1
2511148.1
2511148.1
2511148.1
2511148.1
2511148.1
2511148.1
2511148.1
2511172.3
2511172.2
2511172.1
2511172
2511171.9
2511171.9
2511171.9
2511171.9
2511171.9
2511171.9
2511171.9
2511171.9
2511171.8
2511171.8
2511171.8
2511171.8
2511171.8
2511171.8
2511171.8
2511171.8
2511171.8
2511171.8
2511171.8
2511171.8
2511171.8
2511171.8
2511171.8
2511171.8
2511171.8
2511171.8
2511195.7
2511195.6
2511195.6
2511195.5
2511195.4
2511195.4
2511195.3
2511195.4
2511195.4
2511195.4
2511195.3
2511195.3
2511195.3
2511195.3
2511195.3
2511195.2
2511195.2
2511195.2
2511195.2
2511195.2
2511195.2
2511195.2
2511195.2
2511195.2
2511195.2
2511195.2
2511195.2
2511195.2
2511195.2
2511195.2
2511219
2511218.9
2511218.9
2511218.7
2511218.7
2511218.6
2511218.6
2511218.7
2511218.7
2511218.6
2511218.6
2511218.6
2511218.6
2511218.5
2511218.5
2511218.5
2511218.5
2511218.5
2511218.5
2511218.5
2511218.5
2511218.5
2511218.5
2511218.5
2511218.5
2511218.5
2511218.5
2511218.5
2511218.5
2511218.5
2511242.1
2511242
2511241.9
2511241.8
2511241.7
2511241.7
2511241.7
2511241.8
2511241.7
2511241.7
2511241.7
2511241.7
2511241.6
2511241.6
2511241.6
2511241.6
2511241.6
2511241.6
2511241.6
2511241.6
2511241.6
2511241.6
2511241.6
2511241.6
2511241.6
2511241.6
2511241.6
2511241.6
2511241.6
2511241.6
2511265
2511264.9
2511264.8
2511264.7
2511264.6
2511264.6
2511264.6
2511264.7
2511264.6
2511264.6
2511264.6
2511264.6
2511264.5
2511264.5
2511264.5
2511264.5
2511264.5
2511264.5
2511264.5
2511264.5
2511264.5
2511264.5
2511264.5
2511264.5
2511264.5
2511264.5
2511264.5
2511264.5
2511264.5
2511264.5
2511287.7
2511287.6
2511287.6
2511287.4
2511287.4
2511287.3
2511287.3
2511287.4
2511287.4
2511287.3
2511287.3
2511287.3
2511287.3
2511287.2
2511287.2
2511287.2
2511287.2
2511287.2
2511287.2
2511287.2
2511287.2
2511287.2
2511287.2
2511287.2
2511287.2
2511287.2
2511287.2
2511287.2
2511287.2
2511287.2
2511310.3
2511310.1
2511310.1
2511310
2511309.9
2511309.9
2511309.8
2511309.9
2511309.9
2511309.9
2511309.8
2511309.8
2511309.8
2511309.8
2511309.8
2511309.8
2511309.8
2511309.7
2511309.7
2511309.7
2511309.7
2511309.7
2511309.7
2511309.7
2511309.7
2511309.7
2511309.7
2511309.7
2511309.7
2511309.7
2511332.6
2511332.5
2511332.4
2511332.3
2511332.2
2511332.2
2511332.2
2511332.3
2511332.2
2511332.2
2511332.2
2511332.2
2511332.1
2511332.1
2511332.1
2511332.1
2511332.1
2511332.1
2511332.1
2511332.1
2511332.1
2511332.1
2511332.1
2511332.1
2511332.1
2511332.1
2511332.1
2511332.1
2511332.1
2511332.1
2511354.8
2511354.6
2511354.6
2511354.5
2511354.4
2511354.4
2511354.3
2511354.4
2511354.4
2511354.4
2511354.4
2511354.3
2511354.3
2511354.3
2511354.3
2511354.3
2511354.3
2511354.3
2511354.3
2511354.3
2511354.3
2511354.3
2511354.3
2511354.3
2511354.3
2511354.3
2511354.3
2511354.3
2511354.3
2511354.3
2511376.8
2511376.6
2511376.6
2511376.5
2511376.4
2511376.3
2511376.3
2511376.4
2511376.4
2511376.4
2511376.3
2511376.3
2511376.3
2511376.3
2511376.3
2511376.3
2511376.2
2511376.2
2511376.2
2511376.2
2511376.2
2511376.2
2511376.2
2511376.2
2511376.2
2511376.2
2511376.2
2511376.2
2511376.2
2511376.2
2511398.6
2511398.4
2511398.4
2511398.3
2511398.2
2511398.1
2511398.1
2511398.2
2511398.2
2511398.2
2511398.1
2511398.1
2511398.1
2511398.1
2511398.1
2511398
2511398
2511398
2511398
2511398
2511398
2511398
2511398
2511398
2511398
2511398
2511398
2511398
2511398
2511398
2511420.2
2511420
2511420
2511419.9
2511419.8
2511419.8
2511419.7
2511419.8
2511419.8
2511419.8
2511419.8
2511419.7
2511419.7
2511419.7
2511419.7
2511419.7
2511419.7
2511419.7
2511419.7
2511419.7
2511419.7
2511419.7
2511419.7
2511419.7
2511419.7
2511419.7
2511419.7
2511419.7
2511419.7
2511419.7
2511441.6
2511441.5
2511441.4
2511441.3
2511441.2
2511441.2
2511441.2
2511441.2
2511441.2
2511441.2
2511441.2
2511441.2
2511441.1
2511441.1
2511441.1
2511441.1
2511441.1
2511441.1
2511441.1
2511441.1
2511441.1
2511441.1
2511441.1
2511441.1
2511441.1
2511441.1
2511441.1
2511441.1
2511441.1
2511441.1
2511462.8
2511462.7
2511462.7
2511462.5
2511462.5
2511462.4
2511462.4
2511462.5
2511462.5
2511462.5
2511462.4
2511462.4
2511462.4
2511462.4
2511462.3
2511462.3
2511462.3
2511462.3
2511462.3
2511462.3
2511462.3
2511462.3
2511462.3
2511462.3
2511462.3
2511462.3
2511462.3
2511462.3
2511462.3
2511462.3
2511483.9
2511483.8
2511483.7
2511483.6
2511483.5
2511483.5
2511483.5
2511483.5
2511483.5
2511483.5
2511483.5
2511483.5
2511483.4
2511483.4
2511483.4
2511483.4
2511483.4
2511483.4
2511483.4
2511483.4
2511483.4
2511483.4
2511483.4
2511483.4
2511483.4
2511483.4
2511483.4
2511483.4
2511483.4
2511483.4
2511504.8
2511504.7
2511504.6
2511504.5
2511504.4
2511504.4
2511504.3
2511504.4
2511504.4
2511504.4
2511504.4
2511504.3
2511504.3
2511504.3
2511504.3
2511504.3
2511504.3
2511504.3
2511504.3
2511504.3
2511504.3
2511504.3
2511504.3
2511504.3
2511504.3
2511504.3
2511504.3
2511504.3
2511504.3
2511504.3
2511525.5
2511525.4
2511525.3
2511525.2
2511525.1
2511525.1
2511525
2511525.1
2511525.1
2511525.1
2511525.1
2511525
2511525
2511525
2511525
2511525
2511525
2511525
2511525
2511525
2511525
2511525
2511525
2511525
2511525
2511525
2511525
2511525
2511525
2511525
2511546
2511545.9
2511545.8
2511545.7
2511545.6
2511545.6
2511545.6
2511545.6
2511545.6
2511545.6
2511545.6
2511545.6
2511545.5
2511545.5
2511545.5
2511545.5
2511545.5
2511545.5
2511545.5
2511545.5
2511545.5
2511545.5
2511545.5
2511545.5
2511545.5
2511545.5
2511545.5
2511545.5
2511545.5
2511545.5
2511566.3
2511566.2
2511566.2
2511566
2511565.9
2511565.9
2511565.9
2511566
2511566
2511566
2511565.9
2511565.9
2511565.9
2511565.8
2511565.8
2511565.8
2511565.8
2511565.8
2511565.8
2511565.8
2511565.8
2511565.8
2511565.8
2511565.8
2511565.8
2511565.8
2511565.8
2511565.8
2511565.8
2511565.8
2511586.5
2511586.3
2511586.3
2511586.2
2511586.1
2511586.1
2511586
2511586.1
2511586.1
2511586.1
2511586.1
2511586
2511586
2511586
2511586
2511586
2511586
2511586
2511586
2511586
2511586
2511586
2511586
2511586
2511586
2511586
2511586
2511586
2511586
2511586
2511606.4
2511606.3
2511606.3
2511606.1
2511606.1
2511606
2511606
2511606.1
2511606.1
2511606.1
2511606
2511606
2511606
2511606
2511605.9
2511605.9
2511605.9
2511605.9
2511605.9
2511605.9
2511605.9
2511605.9
2511605.9
2511605.9
2511605.9
2511605.9
2511605.9
2511605.9
2511605.9
2511605.9
2511626.2
2511626.1
2511626.1
2511625.9
2511625.8
2511625.8
2511625.8
2511625.9
2511625.9
2511625.9
2511625.8
2511625.8
2511625.8
2511625.7
2511625.7
2511625.7
2511625.7
2511625.7
2511625.7
2511625.7
2511625.7
2511625.7
2511625.7
2511625.7
2511625.7
2511625.7
2511625.7
2511625.7
2511625.7
2511625.7
2511645.8
2511645.7
2511645.7
2511645.5
2511645.4
2511645.4
2511645.4
2511645.5
2511645.5
2511645.5
2511645.4
2511645.4
2511645.4
2511645.4
2511645.3
2511645.3
2511645.3
2511645.3
2511645.3
2511645.3
2511645.3
2511645.3
2511645.3
2511645.3
2511645.3
2511645.3
2511645.3
2511645.3
2511645.3
2511645.3
2511665.3
2511665.1
2511665.1
2511664.9
2511664.9
2511664.8
2511664.8
2511664.9
2511664.9
2511664.9
2511664.9
2511664.8
2511664.8
2511664.8
2511664.8
2511664.8
2511664.8
2511664.8
2511664.8
2511664.8
2511664.7
2511664.7
2511664.7
2511664.7
2511664.7
2511664.7
2511664.7
2511664.7
2511664.7
2511664.7
2511684.5
2511684.4
2511684.3
2511684.2
2511684.1
2511684.1
2511684.1
2511684.1
2511684.1
2511684.1
2511684.1
2511684.1
2511684
2511684
2511684
2511684
2511684
2511684
2511684
2511684
2511684
2511684
2511684
2511684
2511684
2511684
2511684
2511684
2511684
2511684
2511703.6
2511703.4
2511703.4
2511703.3
2511703.2
2511703.1
2511703.1
2511703.2
2511703.2
2511703.2
2511703.2
2511703.1
2511703.1
2511703.1
2511703.1
2511703.1
2511703.1
2511703.1
2511703.1
2511703.1
2511703.1
2511703.1
2511703.1
2511703.1
2511703.1
2511703.1
2511703.1
2511703.1
2511703.1
2511703.1
2511722.5
2511722.3
2511722.3
2511722.1
2511722.1
2511722
2511722
2511722.1
2511722.1
2511722.1
2511722
2511722
2511722
2511722
2511721.9
2511721.9
2511721.9
2511721.9
2511721.9
2511721.9
2511721.9
2511721.9
2511721.9
2511721.9
2511721.9
2511721.9
2511721.9
2511721.9
2511721.9
2511721.9
2511741.2
2511741
2511741
2511740.8
2511740.8
2511740.7
2511740.7
2511740.8
2511740.8
2511740.8
2511740.7
2511740.7
2511740.7
2511740.7
2511740.7