/*--------------------------------*- C++ -*----------------------------------*\
| =========                 |                                                 |
| \\      /  F ield         | OpenFOAM: The Open Source CFD Toolbox           |
|  \\    /   O peration     | Version:  v2012                                 |
|   \\  /    A nd           | Website:  www.openfoam.com                      |
|    \\/     M anipulation  |                                                 |
\*---------------------------------------------------------------------------*/
FoamFile
{
    version     2.0;
    format      ascii;
    class       surfaceScalarField;
    location    "100";
    object      phi;
}
// * * * * * * * * * * * * * * * * * * * * * * * * * * * * * * * * * * * * * //

dimensions      [1 0 -1 0 0 0 0];
oriented        oriented;


internalField   nonuniform List<scalar> 
47170
(
6.8466432e-09
-3.2113191e-05
1.2770532e-08
-2.7200465e-05
1.3642645e-08
-2.2531854e-05
1.4484146e-08
-1.8608373e-05
1.7274801e-08
-1.5366218e-05
2.2937926e-08
-1.2693332e-05
2.8986963e-08
-1.0448466e-05
2.7677029e-08
-8.4084763e-06
2.0471973e-08
-6.5975401e-06
1.0023525e-08
-5.001196e-06
-4.3922316e-10
-3.5899784e-06
-8.4273529e-09
-2.4646724e-06
-1.3235329e-08
-1.6920989e-06
-1.5678255e-08
-1.1871964e-06
-1.6517436e-08
-8.4795183e-07
-1.6259854e-08
-6.1042304e-07
-1.5167518e-08
-4.3829954e-07
-1.3435655e-08
-3.104428e-07
-1.1325279e-08
-2.151645e-07
-9.1334712e-09
-1.4605482e-07
-7.0591176e-09
-9.760899e-08
-5.2199984e-09
-6.4317637e-08
-3.6728988e-09
-4.1765403e-08
-2.4385258e-09
-2.6682854e-08
-1.5084078e-09
-1.6709132e-08
-8.5075352e-10
-1.0165361e-08
-4.1950406e-10
-5.9045057e-09
-1.6400637e-10
-3.164525e-09
-3.6857553e-11
-1.4345596e-09
-3.7172451e-10
5.1826517e-09
-3.2118374e-05
9.3064387e-09
-2.7204589e-05
1.01503e-08
-2.2532698e-05
1.0664607e-08
-1.8608887e-05
1.1065592e-08
-1.5366618e-05
1.055611e-08
-1.2692823e-05
1.0070916e-08
-1.0447979e-05
8.3696048e-09
-8.4067751e-06
5.3776596e-09
-6.5945459e-06
1.3688643e-09
-4.9971877e-06
-3.2914392e-09
-3.5853162e-06
-6.8242861e-09
-2.4611404e-06
-8.9832967e-09
-1.6899385e-06
-1.0188739e-08
-1.1859921e-06
-1.0657722e-08
-8.4748211e-07
-1.053471e-08
-6.1054725e-07
-9.9158605e-09
-4.3891813e-07
-8.9089011e-09
-3.1145109e-07
-7.6632214e-09
-2.1641031e-07
-6.314453e-09
-1.4740486e-07
-4.9612654e-09
-9.8962498e-08
-3.7014651e-09
-6.5578535e-08
-2.6084239e-09
-4.2858765e-08
-1.7250127e-09
-2.75671e-08
-1.0575436e-09
-1.7376952e-08
-5.8804379e-10
-1.0635348e-08
-2.8342245e-10
-6.2094839e-09
-1.0654019e-10
-3.3417403e-09
-2.2335651e-11
-1.5189969e-09
-3.9406017e-10
4.2958046e-09
-3.212267e-05
7.3934087e-09
-2.7207686e-05
8.4042336e-09
-2.2533708e-05
9.103702e-09
-1.8609586e-05
9.0088019e-09
-1.5366523e-05
7.5082656e-09
-1.2691322e-05
7.014649e-09
-1.0447484e-05
6.3398052e-09
-8.4061006e-06
5.2189892e-09
-6.593424e-06
3.8774428e-09
-4.9958469e-06
2.0545335e-09
-3.5834921e-06
6.4491941e-10
-2.4597317e-06
-1.453093e-10
-1.6891472e-06
-4.9259309e-10
-1.1856458e-06
-5.3662784e-10
-8.4743721e-07
-3.7235878e-10
-6.1071265e-07
-6.6369708e-11
-4.3922357e-07
2.9604372e-10
-3.1181467e-07
6.0710824e-10
-2.1672119e-07
7.8658718e-10
-1.4758552e-07
8.2038898e-10
-9.8996429e-08
7.3838069e-10
-6.5497444e-08
5.921836e-10
-4.2712815e-08
4.2864903e-10
-2.7404157e-08
2.8053888e-10
-1.7229104e-08
1.6373603e-10
-1.0518843e-08
8.2002426e-11
-6.1279777e-09
3.1821861e-11
-3.2917719e-09
6.8457356e-12
-1.4941689e-09
-3.8721444e-10
3.3828423e-09
-3.2126053e-05
5.7976889e-09
-2.7210101e-05
6.6308789e-09
-2.2534541e-05
7.2291561e-09
-1.8610184e-05
7.1391562e-09
-1.5366432e-05
5.8665134e-09
-1.2690049e-05
4.8704965e-09
-1.0446488e-05
4.567073e-09
-8.4057975e-06
4.3231521e-09
-6.5931792e-06
4.0396171e-09
-4.995564e-06
3.0811919e-09
-3.5825327e-06
1.962489e-09
-2.4586138e-06
1.1460553e-09
-1.6883298e-06
6.1116976e-10
-1.1851118e-06
2.6518594e-10
-8.470904e-07
4.4893723e-11
-6.1049335e-07
-9.1830798e-11
-4.3908628e-07
-1.6800643e-10
-3.1173971e-07
-1.9650463e-10
-2.1669252e-07
-2.0189213e-10
-1.4758135e-07
-1.8893201e-10
-9.900949e-08
-1.631278e-10
-6.552428e-08
-1.2816435e-10
-4.2747956e-08
-9.2095434e-11
-2.7440904e-08
-5.9887739e-11
-1.7261521e-08
-3.4910909e-11
-1.0544181e-08
-1.7420471e-11
-6.1456692e-09
-6.7704241e-12
-3.3026314e-09
-1.5015309e-12
-1.4995841e-09
-3.8871598e-10
2.8025463e-09
-3.2128856e-05
4.6407941e-09
-2.721194e-05
5.3260502e-09
-2.2535226e-05
5.8352583e-09
-1.8610693e-05
5.7090261e-09
-1.5366306e-05
4.6690557e-09
-1.2689009e-05
3.7630155e-09
-1.0445581e-05
3.6607863e-09
-8.4056956e-06
3.7872252e-09
-6.593305e-06
3.9352372e-09
-4.9957126e-06
3.3736435e-09
-3.5819704e-06
2.5211672e-09
-2.457762e-06
1.8318908e-09
-1.6876398e-06
1.3276029e-09
-1.1846083e-06
9.5931525e-10
-8.4672141e-07
6.8716026e-10
-6.10222e-07
4.8894131e-10
-4.3888754e-07
3.4370685e-10
-3.1159517e-07
2.4206336e-10
-2.1659059e-07
1.7253178e-10
-1.4751249e-07
1.2487039e-10
-9.8961811e-08
8.9599169e-11
-6.5489497e-08
6.2961029e-11
-4.2721471e-08
4.2144607e-11
-2.7420462e-08
2.6463349e-11
-1.7246088e-08
1.5143794e-11
-1.0533105e-08
7.5073984e-12
-6.1383065e-09
2.8884831e-12
-3.2982544e-09
5.8378891e-13
-1.4974484e-09
-3.881322e-10
2.3153969e-09
-3.2131172e-05
3.7702969e-09
-2.7213395e-05
4.2921682e-09
-2.2535748e-05
4.689868e-09
-1.861109e-05
4.5572953e-09
-1.5366173e-05
3.6807507e-09
-1.2688133e-05
2.8647646e-09
-1.0444765e-05
2.8299979e-09
-8.4056612e-06
3.1206574e-09
-6.5935952e-06
3.4703184e-09
-4.9960627e-06
3.1221932e-09
-3.5816216e-06
2.440743e-09
-2.4570812e-06
1.8535629e-09
-1.6870519e-06
1.4004495e-09
-1.1841559e-06
1.049929e-09
-8.4637024e-07
7.7258758e-10
-6.0994527e-07
5.53621e-10
-4.3866805e-07
3.8088297e-10
-3.1142307e-07
2.5220703e-10
-2.1646161e-07
1.6197991e-10
-1.4742284e-07
1.0230686e-10
-9.8902074e-08
6.2950991e-11
-6.5450693e-08
3.823643e-11
-4.2696833e-08
2.242705e-11
-2.7405055e-08
1.2753146e-11
-1.7236529e-08
6.6632403e-12
-1.0527252e-08
3.139641e-12
-6.1348542e-09
1.1638784e-12
-3.2963706e-09
2.3019536e-13
-1.4965789e-09
-3.87902e-10
1.9362553e-09
-3.2133109e-05
3.0987305e-09
-2.7214557e-05
3.4759909e-09
-2.2536125e-05
3.7678572e-09
-1.8611382e-05
3.6216805e-09
-1.5366026e-05
2.8530734e-09
-1.2687365e-05
2.0896873e-09
-1.0444001e-05
2.0742028e-09
-8.405646e-06
2.4528042e-09
-6.5939733e-06
2.9278204e-09
-4.9965382e-06
2.7382042e-09
-3.5814313e-06
2.2078145e-09
-2.4565513e-06
1.7268609e-09
-1.6865703e-06
1.3408116e-09
-1.1837704e-06
1.029709e-09
-8.4605857e-07
7.7382515e-10
-6.0968997e-07
5.6506279e-10
-4.3845886e-07
3.9582545e-10
-3.1125437e-07
2.6658237e-10
-2.163321e-07
1.7432264e-10
-1.473311e-07
1.1221062e-10
-9.883986e-08
7.0560536e-11
-6.5409396e-08
4.3636054e-11
-4.2669893e-08
2.6102392e-11
-2.7387741e-08
1.5031176e-11
-1.722551e-08
8.0741748e-12
-1.0520363e-08
3.8191122e-12
-6.130716e-09
1.4307008e-12
-3.2940732e-09
2.8957061e-13
-1.4955014e-09
-3.8761243e-10
1.6340941e-09
-3.2134743e-05
2.5731121e-09
-2.7215497e-05
2.8227249e-09
-2.2536374e-05
3.0153699e-09
-1.8611575e-05
2.8440224e-09
-1.5365855e-05
2.1392839e-09
-1.268666e-05
1.411564e-09
-1.0443273e-05
1.3930917e-09
-8.4056278e-06
1.8221059e-09
-6.5944019e-06
2.3840468e-09
-4.9971005e-06
2.3217106e-09
-3.5813685e-06
1.9215156e-09
-2.4561516e-06
1.5359839e-09
-1.6861842e-06
1.2134882e-09
-1.1834483e-06
9.4381141e-10
-8.4578836e-07
7.1492189e-10
-6.0946154e-07
5.2370144e-10
-4.3826723e-07
3.6607187e-10
-3.1109729e-07
2.445663e-10
-2.1621036e-07
1.5761995e-10
-1.4724464e-07
9.944477e-11
-9.8781589e-08
6.089799e-11
-6.5371236e-08
3.6569693e-11
-4.2645533e-08
2.1164656e-11
-2.7372545e-08
1.1841129e-11
-1.7216165e-08
6.0711927e-12
-1.0514707e-08
2.8350324e-12
-6.1274047e-09
1.0526359e-12
-3.2922645e-09
2.2752474e-13
-1.4946579e-09
-3.8738491e-10
1.3937358e-09
-3.2136137e-05
2.1563271e-09
-2.7216259e-05
2.2943318e-09
-2.2536512e-05
2.3935052e-09
-1.8611674e-05
2.1902196e-09
-1.5365651e-05
1.5294761e-09
-1.2685999e-05
8.3050657e-10
-1.0442574e-05
8.0409039e-10
-8.4056016e-06
1.2614121e-09
-6.5948588e-06
1.8859094e-09
-4.9977253e-06
1.9295008e-09
-3.5814116e-06
1.6420284e-09
-2.4558645e-06
1.3409806e-09
-1.6858826e-06
1.0764116e-09
-1.1831842e-06
8.4594795e-10
-8.4555743e-07
6.4432623e-10
-6.0926031e-07
4.7252579e-10
-4.3809503e-07
3.2942667e-10
-3.1095448e-07
2.1850657e-10
-2.1609916e-07
1.3933756e-10
-1.4716577e-07
8.6793845e-11
-9.8728941e-08
5.2570636e-11
-6.533725e-08
3.1228366e-11
-4.2624241e-08
1.8040812e-11
-2.7359581e-08
1.0127746e-11
-1.7208412e-08
5.3982239e-12
-1.0510138e-08
2.5684153e-12
-6.1247847e-09
9.684414e-13
-3.2908494e-09
1.796696e-13
-1.4939983e-09
-3.8720524e-10
1.2019285e-09
-3.2137339e-05
1.8229444e-09
-2.721688e-05
1.8634925e-09
-2.2536552e-05
1.8750431e-09
-1.8611685e-05
1.6377444e-09
-1.5365414e-05
1.014062e-09
-1.2685376e-05
3.4310509e-10
-1.0441903e-05
3.1033492e-10
-8.405569e-06
7.8542687e-10
-6.5953335e-06
1.4477433e-09
-4.9983879e-06
1.5776601e-09
-3.5815411e-06
1.3931466e-09
-2.4556803e-06
1.1669319e-09
-1.6856559e-06
9.5126098e-10
-1.1829688e-06
7.5418215e-10
-8.4535988e-07
5.7668792e-10
-6.0908311e-07
4.2285229e-10
-4.3794078e-07
2.9339717e-10
-3.1082533e-07
1.9275336e-10
-2.1599823e-07
1.2099445e-10
-1.4709427e-07
7.3838579e-11
-9.8681683e-08
4.3495972e-11
-6.5307196e-08
2.502516e-11
-4.2605796e-08
1.3872649e-11
-2.7348657e-08
7.5018528e-12
-1.7202099e-08
3.7664297e-12
-1.0506546e-08
1.7518653e-12
-6.1227844e-09
6.5508242e-13
-3.2897872e-09
1.3647301e-13
-1.4935038e-09
-3.8706877e-10
1.0489774e-09
-3.2138388e-05
1.5555057e-09
-2.7217387e-05
1.5116116e-09
-2.2536508e-05
1.4419792e-09
-1.8611615e-05
1.1710572e-09
-1.5365143e-05
5.8002921e-10
-1.2684785e-05
-6.3576113e-11
-1.0441259e-05
-9.4484758e-11
-8.4055383e-06
3.949194e-10
-6.5958226e-06
1.075262e-09
-4.9990685e-06
1.2842005e-09
-3.5817496e-06
1.1931058e-09
-2.4555895e-06
1.0281594e-09
-1.6854905e-06
8.5049862e-10
-1.1827915e-06
6.7980873e-10
-8.4518876e-07
5.2200961e-10
-6.0892562e-07
3.8335718e-10
-4.3780178e-07
2.6574665e-10
-3.1070798e-07
1.7388905e-10
-2.1590613e-07
1.0826052e-10
-1.4702892e-07
6.5274666e-11
-9.8638583e-08
3.790659e-11
-6.5280019e-08
2.146709e-11
-4.2589322e-08
1.1741152e-11
-2.733906e-08
6.2809729e-12
-1.7196667e-08
3.2237437e-12
-1.050353e-08
1.4929071e-12
-6.1211402e-09
5.6244111e-13
-3.2889243e-09
1.1278381e-13
-1.4931014e-09
-3.8695599e-10
9.275888e-10
-3.2139316e-05
1.341878e-09
-2.7217801e-05
1.2262223e-09
-2.2536392e-05
1.0836695e-09
-1.8611473e-05
7.8015034e-10
-1.5364839e-05
2.1513681e-10
-1.268422e-05
-3.9943743e-10
-1.0440644e-05
-4.2287503e-10
-8.405515e-06
7.9699915e-11
-6.5963249e-06
7.7562606e-10
-4.9997646e-06
1.0566276e-09
-3.5820302e-06
1.040254e-09
-2.4555734e-06
9.2093781e-10
-1.6853708e-06
7.7222004e-10
-1.182643e-06
6.2207385e-10
-8.4503821e-07
4.800758e-10
-6.0878387e-07
3.5385225e-10
-4.3767522e-07
2.4599497e-10
-3.1060042e-07
1.6133608e-10
-2.1582125e-07
1.004897e-10
-1.4696831e-07
6.0398232e-11
-9.8598375e-08
3.4855837e-11
-6.5254665e-08
1.955053e-11
-4.2573967e-08
1.0526892e-11
-2.7330132e-08
5.5122085e-12
-1.7191617e-08
2.657434e-12
-1.0500731e-08
1.2121053e-12
-6.1196174e-09
4.5298205e-13
-3.2881247e-09
1.0624431e-13
-1.4927264e-09
-3.8684975e-10
8.3182122e-10
-3.2140148e-05
1.1727396e-09
-2.7218142e-05
9.9758016e-10
-2.2536217e-05
7.9179975e-10
-1.8611267e-05
4.5634157e-10
-1.5364504e-05
-8.833495e-11
-1.2683675e-05
-6.711264e-10
-1.0440061e-05
-6.8909598e-10
-8.4054972e-06
-1.7051115e-10
-6.5968432e-06
5.4589326e-10
-5.0004813e-06
8.8395694e-10
-3.5823679e-06
9.2491181e-10
-2.4556146e-06
8.4086755e-10
-1.6852864e-06
7.146005e-10
-1.182517e-06
5.8046825e-10
-8.4490373e-07
4.5088424e-10
-6.0865455e-07
3.3444443e-10
-4.3755849e-07
2.3429356e-10
-3.1050047e-07
1.5508991e-10
-2.1574184e-07
9.7586812e-11
-1.4691104e-07
5.9367382e-11
-9.8560074e-08
3.4868448e-11
-6.5230365e-08
2.0061548e-11
-4.2559187e-08
1.121263e-11
-2.7321462e-08
6.1374491e-12
-1.7186655e-08
3.2329887e-12
-1.0497946e-08
1.5418519e-12
-6.1180858e-09
5.9018354e-13
-3.2873133e-09
1.0908997e-13
-1.4923433e-09
-3.8674066e-10
7.5704483e-10
-3.2140905e-05
1.0395479e-09
-2.7218425e-05
8.1590065e-10
-2.2535993e-05
5.5476808e-10
-1.8611006e-05
1.9021157e-10
-1.5364139e-05
-3.3528909e-10
-1.268315e-05
-8.8702361e-10
-1.0439509e-05
-9.0088164e-10
-8.4054834e-06
-3.6720456e-10
-6.5973766e-06
3.706636e-10
-5.0012193e-06
7.5547327e-10
-3.5827524e-06
8.4086333e-10
-2.4557002e-06
7.8363159e-10
-1.6852288e-06
6.7383473e-10
-1.1824074e-06
5.5116294e-10
-8.4478073e-07
4.3023775e-10
-6.0853382e-07
3.2034884e-10
-4.374483e-07
2.250861e-10
-3.1040541e-07
1.4930428e-10
-2.1566585e-07
9.4006479e-11
-1.4685592e-07
5.7064982e-11
-9.852305e-08
3.3363206e-11
-6.5206851e-08
1.9044505e-11
-4.2544878e-08
1.0479042e-11
-2.7313039e-08
5.6130454e-12
-1.7181816e-08
2.7947164e-12
-1.0495219e-08
1.3015019e-12
-6.1165781e-09
4.9355541e-13
-3.2865103e-09
1.0902367e-13
-1.4919622e-09
-3.8663164e-10
6.9922023e-10
-3.2141605e-05
9.3553526e-10
-2.7218661e-05
6.726648e-10
-2.253573e-05
3.6332417e-10
-1.8610696e-05
-2.6129997e-11
-1.5363749e-05
-5.3287742e-10
-1.2682643e-05
-1.054992e-09
-1.0438987e-05
-1.0646764e-09
-8.4054738e-06
-5.1988102e-10
-6.5979212e-06
2.3742154e-10
-5.0019768e-06
6.6036921e-10
-3.583175e-06
7.8062927e-10
-2.4558207e-06
7.4358719e-10
-1.6851914e-06
6.4538378e-10
-1.1823094e-06
5.3019009e-10
-8.4466525e-07
4.1463329e-10
-6.0841846e-07
3.0865061e-10
-4.3734208e-07
2.1635085e-10
-3.1031329e-07
1.428037e-10
-2.1559214e-07
8.9298442e-11
-1.468026e-07
5.3731602e-11
-9.8487403e-08
3.1120209e-11
-6.5184367e-08
1.7585132e-11
-4.2531312e-08
9.6224073e-12
-2.7305162e-08
5.1494111e-12
-1.7177358e-08
2.648977e-12
-1.0492744e-08
1.2364859e-12
-6.1152267e-09
4.7265148e-13
-3.2857943e-09
9.8466863e-14
-1.4916214e-09
-3.8653317e-10
6.5526824e-10
-3.214226e-05
8.5561641e-10
-2.7218862e-05
5.6095871e-10
-2.2535435e-05
2.0964329e-10
-1.8610345e-05
-2.0114751e-10
-1.5363339e-05
-6.8983663e-10
-1.2682154e-05
-1.184742e-09
-1.0438492e-05
-1.1914155e-09
-8.4054673e-06
-6.3820226e-10
-6.5984742e-06
1.3466482e-10
-5.0027498e-06
5.8718467e-10
-3.5836273e-06
7.3511127e-10
-2.4559688e-06
7.1304166e-10
-1.6851691e-06
6.2275568e-10
-1.1822193e-06
5.1237018e-10
-8.4455461e-07
4.0031402e-10
-6.0830658e-07
2.9698012e-10
-4.3723855e-07
2.0695932e-10
-3.1022347e-07
1.3538989e-10
-2.1552044e-07
8.3688158e-11
-1.4675105e-07
4.9584861e-11
-9.8453241e-08
2.8124214e-11
-6.5163019e-08
1.5446874e-11
-4.2518615e-08
8.1670494e-12
-2.7297931e-08
4.194682e-12
-1.7173361e-08
2.0041902e-12
-1.0490581e-08
9.1205912e-13
-6.1140713e-09
3.4601438e-13
-3.2851898e-09
8.4592061e-14
-1.4913331e-09
-3.8644859e-10
6.2246469e-10
-3.2142883e-05
7.9536004e-10
-2.7219035e-05
4.7489063e-10
-2.2535115e-05
8.6682981e-11
-1.8609957e-05
-3.4310969e-10
-1.5362909e-05
-8.1433103e-10
-1.2681683e-05
-1.284795e-09
-1.0438021e-05
-1.2902442e-09
-8.4054619e-06
-7.296713e-10
-6.5990346e-06
5.3497467e-11
-5.0035331e-06
5.3013557e-10
-3.5841037e-06
7.0101876e-10
-2.4561398e-06
6.90785e-10
-1.6851587e-06
6.0629164e-10
-1.182135e-06
4.9954022e-10
-8.4444767e-07
3.9024155e-10
-6.081975e-07
2.8924697e-10
-4.3713741e-07
2.0130038e-10
-3.1013575e-07
1.3148339e-10
-2.1545056e-07
8.1142308e-11
-1.4670099e-07
4.8114791e-11
-9.842023e-08
2.7389099e-11
-6.5142547e-08
1.5256379e-11
-4.250656e-08
8.2602965e-12
-2.7291147e-08
4.4314645e-12
-1.7169669e-08
2.332115e-12
-1.0488618e-08
1.1259907e-12
-6.1130404e-09
4.3819292e-13
-3.284656e-09
7.5717615e-14
-1.4910782e-09
-3.8637287e-10
5.9856389e-10
-3.2143482e-05
7.5052485e-10
-2.7219187e-05
4.0980495e-10
-2.2534774e-05
-1.0420592e-11
-1.8609536e-05
-4.5731106e-10
-1.5362462e-05
-9.1290454e-10
-1.2681227e-05
-1.362526e-09
-1.0437571e-05
-1.3690237e-09
-8.4054555e-06
-8.0149925e-10
-6.5996019e-06
-1.1600937e-11
-5.0043231e-06
4.8640994e-10
-3.5846016e-06
6.7569437e-10
-2.4563292e-06
6.747059e-10
-1.6851575e-06
5.9427827e-10
-1.1820548e-06
4.8986603e-10
-8.4434307e-07
3.8242687e-10
-6.0809023e-07
2.8299617e-10
-4.3703783e-07
1.9636217e-10
-3.1004931e-07
1.276195e-10
-2.1538172e-07
7.8209669e-11
-1.4665177e-07
4.5861863e-11
-9.8387882e-08
2.569708e-11
-6.5122572e-08
1.3945591e-11
-4.2494866e-08
7.2695183e-12
-2.7284614e-08
3.7031663e-12
-1.7166149e-08
1.7638683e-12
-1.0486768e-08
8.1109392e-13
-6.1120794e-09
3.1112327e-13
-3.2841614e-09
7.0824909e-14
-1.4908417e-09
-3.8630204e-10
5.8165887e-10
-3.2144063e-05
7.1760421e-10
-2.7219323e-05
3.615805e-10
-2.2534418e-05
-8.5576831e-11
-1.8609089e-05
-5.4796854e-10
-1.5361999e-05
-9.9030459e-10
-1.2680785e-05
-1.4231662e-09
-1.0437139e-05
-1.4333498e-09
-8.4054453e-06
-8.6007594e-10
-6.6001751e-06
-6.2153615e-11
-5.0051211e-06
4.5427616e-10
-3.5851178e-06
6.5844736e-10
-2.4565335e-06
6.6451507e-10
-1.6851634e-06
5.8685303e-10
-1.1819772e-06
4.8379038e-10
-8.4423984e-07
3.7748176e-10
-6.0798407e-07
2.7905241e-10
-4.3693927e-07
1.9340962e-10
-3.0996382e-07
1.2545743e-10
-2.153137e-07
7.6711902e-11
-1.4660319e-07
4.4864586e-11
-9.8356014e-08
2.5100784e-11
-6.5102938e-08
1.3634381e-11
-4.2483402e-08
7.1679624e-12
-2.7278241e-08
3.7137181e-12
-1.7162731e-08
1.8916802e-12
-1.048498e-08
8.8329475e-13
-6.1111543e-09
3.4235869e-13
-3.2836855e-09
6.8693826e-14
-1.4906134e-09
-3.8623335e-10
5.7007099e-10
-3.2144634e-05
6.9385509e-10
-2.7219446e-05
3.2669684e-10
-2.2534051e-05
-1.4275509e-10
-1.860862e-05
-6.1939709e-10
-1.5361523e-05
-1.0506298e-09
-1.2680354e-05
-1.470416e-09
-1.0436719e-05
-1.4861421e-09
-8.4054297e-06
-9.0839073e-10
-6.6007527e-06
-1.0103196e-10
-5.0059285e-06
4.3121718e-10
-3.5856499e-06
6.4782301e-10
-2.4567502e-06
6.5897325e-10
-1.6851743e-06
5.827185e-10
-1.1819011e-06
4.8000487e-10
-8.4413697e-07
3.7408548e-10
-6.0787825e-07
2.7609679e-10
-4.3684114e-07
1.9098815e-10
-3.0987882e-07
1.2350528e-10
-2.1524612e-07
7.5213271e-11
-1.4655497e-07
4.367867e-11
-9.8324423e-08
2.4222117e-11
-6.5083523e-08
1.2917236e-11
-4.2472074e-08
6.6194132e-12
-2.7271951e-08
3.2804435e-12
-1.7159358e-08
1.5041507e-12
-1.0483212e-08
6.7127638e-13
-6.1102371e-09
2.5605145e-13
-3.2832121e-09
6.882544e-14
-1.4903856e-09
-3.8616453e-10
5.6236145e-10
-3.2145196e-05
6.7705573e-10
-2.7219561e-05
3.0238616e-10
-2.2533676e-05
-1.8505817e-10
-1.8608132e-05
-6.7455487e-10
-1.5361033e-05
-1.096775e-09
-1.2679932e-05
-1.507127e-09
-1.0436308e-05
-1.5286702e-09
-8.4054082e-06
-9.4676235e-10
-6.6013345e-06
-1.3054503e-10
-5.0067448e-06
4.16481e-10
-3.5861968e-06
6.4376413e-10
-2.4569776e-06
6.5893859e-10
-1.6851894e-06
5.8340134e-10
-1.1818257e-06
4.8057542e-10
-8.4403403e-07
3.7456469e-10
-6.0777241e-07
2.7664236e-10
-4.3674315e-07
1.9168744e-10
-3.0979407e-07
1.2437904e-10
-2.1517879e-07
7.6112768e-11
-1.4650696e-07
4.4647371e-11
-9.8293002e-08
2.5137251e-11
-6.5064244e-08
1.3831826e-11
-4.2460846e-08
7.408408e-12
-2.7265719e-08
3.9447346e-12
-1.7156018e-08
2.0799689e-12
-1.0481463e-08
1.0050567e-12
-6.1093304e-09
3.9360244e-13
-3.2827446e-09
6.8037013e-14
-1.4901605e-09
-3.8609649e-10
5.5739921e-10
-3.2145753e-05
6.6512569e-10
-2.7219669e-05
2.8614799e-10
-2.2533297e-05
-2.1454373e-10
-1.8607631e-05
-7.1524672e-10
-1.5360532e-05
-1.1308129e-09
-1.2679516e-05
-1.5355888e-09
-1.0435903e-05
-1.5626785e-09
-8.4053811e-06
-9.7675344e-10
-6.6019203e-06
-1.5370902e-10
-5.0075679e-06
4.0576541e-10
-3.5867562e-06
6.4182137e-10
-2.4572138e-06
6.5977079e-10
-1.6852072e-06
5.8405766e-10
-1.1817501e-06
4.8038615e-10
-8.4393024e-07
3.7372623e-10
-6.0766585e-07
2.7538405e-10
-4.3664469e-07
1.9030265e-10
-3.097091e-07
1.229846e-10
-2.151114e-07
7.4846345e-11
-1.4645892e-07
4.3461127e-11
-9.8261604e-08
2.4103787e-11
-6.5044994e-08
1.289529e-11
-4.2449671e-08
6.6294301e-12
-2.7259532e-08
3.3118164e-12
-1.7152715e-08
1.5350182e-12
-1.0479742e-08
6.9443658e-13
-6.1084415e-09
2.6629821e-13
-3.2822875e-09
6.6594809e-14
-1.4899407e-09
-3.860299e-10
5.540698e-10
-3.2146308e-05
6.5644972e-10
-2.7219771e-05
2.7583959e-10
-2.2532916e-05
-2.3308307e-10
-1.8607122e-05
-7.4347837e-10
-1.5360022e-05
-1.1550792e-09
-1.2679104e-05
-1.5580326e-09
-1.04355e-05
-1.5898602e-09
-8.4053493e-06
-9.9918345e-10
-6.6025109e-06
-1.7142743e-10
-5.0083958e-06
3.9880825e-10
-3.5873263e-06
6.4228964e-10
-2.4574573e-06
6.6242004e-10
-1.6852272e-06
5.8619809e-10
-1.1816739e-06
4.8146835e-10
-8.4382539e-07
3.7394993e-10
-6.0755841e-07
2.7506048e-10
-4.365457e-07
1.8978716e-10
-3.096239e-07
1.2245152e-10
-2.1504399e-07
7.4421626e-11
-1.4641098e-07
4.316578e-11
-9.8230311e-08
2.3947892e-11
-6.5025844e-08
1.2874691e-11
-4.2438579e-08
6.7099407e-12
-2.725342e-08
3.44419e-12
-1.7149465e-08
1.7418362e-12
-1.0478055e-08
8.097814e-13
-6.1075721e-09
3.1470559e-13
-3.2818402e-09
6.5578793e-14
-1.4897249e-09
-3.8596432e-10
5.5184038e-10
-3.214686e-05
6.5007911e-10
-2.721987e-05
2.7006546e-10
-2.2532536e-05
-2.4285878e-10
-1.860661e-05
-7.6137546e-10
-1.5359503e-05
-1.1717854e-09
-1.2678694e-05
-1.5763752e-09
-1.0435096e-05
-1.6120927e-09
-8.4053136e-06
-1.0165362e-09
-6.6031064e-06
-1.8517824e-10
-5.0092272e-06
3.9544644e-10
-3.5879068e-06
6.4496291e-10
-2.4577069e-06
6.6593072e-10
-1.6852481e-06
5.8874444e-10
-1.1815968e-06
4.8257731e-10
-8.4371911e-07
3.7389085e-10
-6.0744977e-07
2.741798e-10
-4.3644588e-07
1.8852566e-10
-3.0953828e-07
1.2108616e-10
-2.1497646e-07
7.3190423e-11
-1.4636308e-07
4.2068888e-11
-9.8199123e-08
2.3066652e-11
-6.5006816e-08
1.2123661e-11
-4.24276e-08
6.134264e-12
-2.7247395e-08
2.9893753e-12
-1.7146274e-08
1.3537717e-12
-1.0476404e-08
5.9701681e-13
-6.1067244e-09
2.282981e-13
-3.2814043e-09
6.4401424e-14
-1.4895141e-09
-3.8589992e-10
5.5058786e-10
-3.214741e-05
6.4555946e-10
-2.7219965e-05
2.6761068e-10
-2.2532158e-05
-2.4629381e-10
-1.8606096e-05
-7.7137705e-10
-1.5358978e-05
-1.1827743e-09
-1.2678283e-05
-1.5917894e-09
-1.0434687e-05
-1.6308104e-09
-8.4052747e-06
-1.0300813e-09
-6.6037071e-06
-1.9505624e-10
-5.0100623e-06
3.9528911e-10
-3.5884971e-06
6.5033198e-10
-2.457962e-06
6.7221258e-10
-1.6852699e-06
5.9408334e-10
-1.1815188e-06
4.8666859e-10
-8.4361164e-07
3.7687013e-10
-6.0734015e-07
2.7640962e-10
-4.3634541e-07
1.9026233e-10
-3.0945236e-07
1.2264166e-10
-2.1490888e-07
7.4516606e-11
-1.4631524e-07
4.3333366e-11
-9.816803e-08
2.4150245e-11
-6.4987899e-08
1.3171316e-11
-4.2416723e-08
6.998656e-12
-2.7241434e-08
3.7127626e-12
-1.7143124e-08
1.9633769e-12
-1.047478e-08
9.5383068e-13
-6.1058941e-09
3.7526287e-13
-3.2809793e-09
6.2769342e-14
-1.4893089e-09
-3.8583715e-10
5.5034917e-10
-3.2147961e-05
6.4278141e-10
-2.7220057e-05
2.6760944e-10
-2.2531783e-05
-2.4574187e-10
-1.8605582e-05
-7.7586887e-10
-1.5358448e-05
-1.1898082e-09
-1.2677869e-05
-1.6056526e-09
-1.0434271e-05
-1.647289e-09
-8.4052331e-06
-1.041591e-09
-6.6043127e-06
-2.0348346e-10
-5.0109004e-06
3.9576097e-10
-3.5890963e-06
6.5539599e-10
-2.4582217e-06
6.7774669e-10
-1.6852922e-06
5.9812484e-10
-1.1814392e-06
4.8900344e-10
-8.4350245e-07
3.7779665e-10
-6.0722904e-07
2.7627422e-10
-4.3624383e-07
1.8951807e-10
-3.0936572e-07
1.2158859e-10
-2.1484093e-07
7.3429944e-11
-1.462672e-07
4.22219e-11
-9.8136844e-08
2.3162512e-11
-6.4968952e-08
1.2239018e-11
-4.2405852e-08
6.2157915e-12
-2.7235491e-08
3.0631405e-12
-1.7139993e-08
1.3995376e-12
-1.0473172e-08
6.2922432e-13
-6.1050741e-09
2.4190735e-13
-3.2805606e-09
6.1831425e-14
-1.4891068e-09
-3.8577532e-10
5.5105897e-10
-3.2148512e-05
6.4164022e-10
-2.7220148e-05
2.6951511e-10
-2.2531411e-05
-2.4295046e-10
-1.860507e-05
-7.7618449e-10
-1.5357915e-05
-1.193821e-09
-1.2677451e-05
-1.6192743e-09
-1.0433845e-05
-1.6619156e-09
-8.4051905e-06
-1.0513131e-09
-6.6049233e-06
-2.1023444e-10
-5.0117415e-06
3.9776032e-10
-3.5897042e-06
6.6150725e-10
-2.4584855e-06
6.8381209e-10
-1.6853144e-06
6.0279111e-10
-1.1813583e-06
4.920698e-10
-8.4339165e-07
3.7950579e-10
-6.0711654e-07
2.7695401e-10
-4.3614121e-07
1.8961122e-10
-3.0927845e-07
1.2141269e-10
-2.1477269e-07
7.3228482e-11
-1.462191e-07
4.2076175e-11
-9.8105674e-08
2.3101111e-11
-6.4950047e-08
1.2290589e-11
-4.2395033e-08
6.3523136e-12
-2.7229609e-08
3.2442578e-12
-1.7136908e-08
1.647055e-12
-1.0471592e-08
7.6809278e-13
-6.1042699e-09
2.9986554e-13
-3.2801492e-09
6.1098632e-14
-1.4889078e-09
-3.8571422e-10
5.5264755e-10
-3.2149065e-05
6.4185037e-10
-2.7220237e-05
2.7280498e-10
-2.2531042e-05
-2.3884326e-10
-1.8604558e-05
-7.7326448e-10
-1.535738e-05
-1.1954195e-09
-1.2677029e-05
-1.6335678e-09
-1.0433407e-05
-1.6764944e-09
-8.4051476e-06
-1.0601546e-09
-6.6055396e-06
-2.1585415e-10
-5.0125859e-06
4.0059307e-10
-3.5903206e-06
6.6772764e-10
-2.4587527e-06
6.8965838e-10
-1.6853362e-06
6.0693995e-10
-1.1812756e-06
4.9440081e-10
-8.4327902e-07
3.8027975e-10
-6.0700243e-07
2.7648799e-10
-4.3603733e-07
1.8839341e-10
-3.0919034e-07
1.1983951e-10
-2.1470403e-07
7.1695513e-11
-1.461709e-07
4.0655801e-11
-9.8074551e-08
2.1930248e-11
-6.493125e-08
1.1289155e-11
-4.2384342e-08
5.5893117e-12
-2.7223846e-08
2.6520448e-12
-1.7133911e-08
1.1583811e-12
-1.0470071e-08
4.9997076e-13
-6.1035015e-09
1.9116145e-13
-3.2797574e-09
5.8891707e-14
-1.4887176e-09
-3.8565533e-10
5.5495837e-10
-3.214962e-05
6.4338584e-10
-2.7220325e-05
2.7696839e-10
-2.2530676e-05
-2.3376027e-10
-1.8604047e-05
-7.6822932e-10
-1.5356846e-05
-1.195474e-09
-1.2676602e-05
-1.6479475e-09
-1.0432955e-05
-1.691306e-09
-8.4051042e-06
-1.0695629e-09
-6.6061613e-06
-2.2011348e-10
-5.0134354e-06
4.0568656e-10
-3.5909464e-06
6.7597089e-10
-2.4590231e-06
6.974967e-10
-1.6853577e-06
6.1324791e-10
-1.1811914e-06
4.9920694e-10
-8.4316496e-07
3.8371338e-10
-6.0688708e-07
2.7884881e-10
-4.3593248e-07
1.9002616e-10
-3.0910172e-07
1.2109828e-10
-2.1463517e-07
7.265064e-11
-1.461227e-07
4.1555631e-11
-9.8043549e-08
2.2678605e-11
-6.4912616e-08
1.206335e-11
-4.237382e-08
6.2511929e-12
-2.7218225e-08
3.2476773e-12
-1.7131029e-08
1.7015386e-12
-1.0468635e-08
8.2413153e-13
-6.1027906e-09
3.2579719e-13
-3.2794005e-09
5.4078047e-14
-1.4885446e-09
-3.8560125e-10
5.5799193e-10
-3.2150178e-05
6.4624437e-10
-2.7220414e-05
2.81865e-10
-2.2530311e-05
-2.2820747e-10
-1.8603537e-05
-7.619428e-10
-1.5356312e-05
-1.195063e-09
-1.2676169e-05
-1.6626576e-09
-1.0432487e-05
-1.7054424e-09
-8.4050615e-06
-1.0797148e-09
-6.606787e-06
-2.2322956e-10
-5.0142919e-06
4.1063105e-10
-3.5915802e-06
6.8309096e-10
-2.4592956e-06
7.0374463e-10
-1.6853783e-06
6.1782459e-10
-1.1811056e-06
5.0215872e-10
-8.4304925e-07
3.8527718e-10
-6.0677027e-07
2.7924736e-10
-4.3582641e-07
1.8957766e-10
-3.0901213e-07
1.2014167e-10
-2.1456571e-07
7.1537949e-11
-1.4607418e-07
4.0361151e-11
-9.8012386e-08
2.1594026e-11
-6.4893916e-08
1.102289e-11
-4.2363288e-08
5.3794937e-12
-2.7212628e-08
2.5290056e-12
-1.7128185e-08
1.0941264e-12
-1.0467236e-08
4.765003e-13
-6.1021075e-09
1.8323191e-13
-3.2790615e-09
5.1434622e-14
-1.4883809e-09
-3.8554982e-10
5.6166019e-10
-3.2150739e-05
6.5042979e-10
-2.7220503e-05
2.874463e-10
-2.2529948e-05
-2.2232279e-10
-1.8603028e-05
-7.5471094e-10
-1.535578e-05
-1.1951025e-09
-1.2675728e-05
-1.6785462e-09
-1.0432004e-05
-1.7182192e-09
-8.4050218e-06
-1.0883396e-09
-6.6074168e-06
-2.2497323e-10
-5.0151553e-06
4.1611959e-10
-3.5922212e-06
6.9147127e-10
-2.459571e-06
7.1142433e-10
-1.6853982e-06
6.2405673e-10
-1.1810183e-06
5.069942e-10
-8.4293215e-07
3.8887792e-10
-6.0665221e-07
2.8178888e-10
-4.3571929e-07
1.9121329e-10
-3.0892162e-07
1.2115833e-10
-2.1449564e-07
7.2213941e-11
-1.460253e-07
4.0856505e-11
-9.7981027e-08
2.1977557e-11
-6.4875097e-08
1.137316e-11
-4.2352683e-08
5.6964832e-12
-2.7207001e-08
2.818115e-12
-1.7125331e-08
1.395728e-12
-1.0465834e-08
6.4540665e-13
-6.1014236e-09
2.5282745e-13
-3.2787215e-09
5.1676061e-14
-1.4882165e-09
-3.8549814e-10
5.6592491e-10
-3.2151305e-05
6.5562848e-10
-2.7220592e-05
2.9379975e-10
-2.2529586e-05
-2.1576167e-10
-1.8602518e-05
-7.466805e-10
-1.5355249e-05
-1.1959614e-09
-1.2675279e-05
-1.6954559e-09
-1.0431504e-05
-1.7305347e-09
-8.4049868e-06
-1.0965208e-09
-6.6080508e-06
-2.2681444e-10
-5.0160251e-06
4.2246243e-10
-3.5928705e-06
7.0063603e-10
-2.4598492e-06
7.1926675e-10
-1.6854169e-06
6.2998492e-10
-1.180929e-06
5.1115109e-10
-8.4281329e-07
3.9153002e-10
-6.0653263e-07
2.8318128e-10
-4.3561091e-07
1.9168221e-10
-3.0883013e-07
1.2099206e-10
-2.1442491e-07
7.1765424e-11
-1.4597604e-07
4.0251732e-11
-9.794948e-08
2.1408036e-11
-6.4856201e-08
1.0790746e-11
-4.234205e-08
5.2104478e-12
-2.7201372e-08
2.3999305e-12
-1.7122485e-08
1.0299509e-12
-1.0464443e-08
4.3754846e-13
-6.1007484e-09
1.6781941e-13
-3.2783869e-09
5.1124888e-14
-1.4880545e-09
-3.8544702e-10
5.7077197e-10
-3.2151876e-05
6.6178815e-10
-2.7220683e-05
3.0082441e-10
-2.2529225e-05
-2.0857836e-10
-1.8602009e-05
-7.3817851e-10
-1.5354719e-05
-1.1972494e-09
-1.267482e-05
-1.7126364e-09
-1.0430989e-05
-1.7420381e-09
-8.4049574e-06
-1.1034512e-09
-6.6086894e-06
-2.269715e-10
-5.0169016e-06
4.3022976e-10
-3.5935277e-06
7.106447e-10
-2.4601297e-06
7.2866689e-10
-1.6854349e-06
6.3800487e-10
-1.1808385e-06
5.1797036e-10
-8.4269332e-07
3.9726754e-10
-6.0641216e-07
2.8808661e-10
-4.3550186e-07
1.9575142e-10
-3.0873813e-07
1.2440897e-10
-2.1435378e-07
7.4472492e-11
-1.4592652e-07
4.2538286e-11
-9.7917779e-08
2.3187715e-11
-6.4837231e-08
1.2329997e-11
-4.2331386e-08
6.3872038e-12
-2.7195717e-08
3.3344835e-12
-1.7119628e-08
1.7750897e-12
-1.0463051e-08
8.7324352e-13
-6.1000793e-09
3.4628134e-13
-3.2780593e-09
4.9625371e-14
-1.487897e-09
-3.853974e-10
5.7614221e-10
-3.2152452e-05
6.6901978e-10
-2.7220776e-05
3.085616e-10
-2.2528865e-05
-2.0054609e-10
-1.8601499e-05
-7.2996299e-10
-1.535419e-05
-1.199794e-09
-1.267435e-05
-1.7302115e-09
-1.0430458e-05
-1.7530834e-09
-8.4049346e-06
-1.1100335e-09
-6.6093325e-06
-2.2721974e-10
-5.0177845e-06
4.3661228e-10
-3.5941915e-06
7.1875529e-10
-2.460412e-06
7.3578181e-10
-1.6854519e-06
6.4337654e-10
-1.1807462e-06
5.217542e-10
-8.4257174e-07
3.9981078e-10
-6.0629038e-07
2.8962071e-10
-4.3539175e-07
1.9661048e-10
-3.0864533e-07
1.2463963e-10
-2.1428193e-07
7.4314573e-11
-1.458764e-07
4.2026623e-11
-9.7885631e-08
2.2572717e-11
-6.4817951e-08
1.1569221e-11
-4.2320514e-08
5.6589195e-12
-2.7189928e-08
2.6640009e-12
-1.7116694e-08
1.1548124e-12
-1.0461619e-08
5.042558e-13
-6.0993894e-09
1.9318676e-13
-3.2777221e-09
5.0367288e-14
-1.487736e-09
-3.8534703e-10