/*--------------------------------*- C++ -*----------------------------------*\
| =========                 |                                                 |
| \\      /  F ield         | OpenFOAM: The Open Source CFD Toolbox           |
|  \\    /   O peration     | Version:  v2012                                 |
|   \\  /    A nd           | Website:  www.openfoam.com                      |
|    \\/     M anipulation  |                                                 |
\*---------------------------------------------------------------------------*/
FoamFile
{
    version     2.0;
    format      ascii;
    class       volScalarField;
    location    "100";
    object      rho;
}
// * * * * * * * * * * * * * * * * * * * * * * * * * * * * * * * * * * * * * //

dimensions      [1 -3 0 0 0 0 0];


internalField   nonuniform List<scalar> 
24000
(
21.943968
21.772284
21.527129
21.355217
21.17661
20.966956
20.618855
19.755399
18.454345
16.638504
14.183778
11.565165
9.4734394
7.9794972
6.882754
6.0315567
5.3436313
4.7743248
4.3041516
3.9263568
3.6342031
3.4088925
3.2321451
3.0908616
2.9785318
2.8892021
2.8164153
2.7564669
2.7063647
2.6638505
21.944255
21.770625
21.526293
21.355395
21.177269
20.967676
20.618613
19.75519
18.452488
16.633021
14.174235
11.559908
9.474
7.9839414
6.8903274
6.0415531
5.3550873
4.7865271
4.3159533
3.9366393
3.6428881
3.415898
3.2377427
3.0955349
2.9827677
2.8931815
2.8202166
2.7601237
2.7098973
2.6672821
21.944013
21.771102
21.525516
21.354027
21.174204
20.964762
20.623011
19.757541
18.453965
16.633988
14.173401
11.560928
9.4771656
7.98867
6.8965616
6.0492287
5.3640583
4.7960569
4.3250989
3.9450355
3.6503273
3.4223454
3.243226
3.1002281
2.9867821
2.8967138
2.8234135
2.7630891
2.7127008
2.6699695
21.944191
21.771215
21.525332
21.353843
21.173174
20.962861
20.622508
19.758391
18.454905
16.634705
14.171219
11.557203
9.4739899
7.9861765
6.8943928
6.0472205
5.3620073
4.7939838
4.3229582
3.9426434
3.6477824
3.4198317
3.2408811
3.0981436
2.9848725
2.8949681
2.8217999
2.7615774
2.7112687
2.6686012
21.944395
21.771365
21.525207
21.353684
21.172338
20.961309
20.621882
19.759246
18.456234
16.636206
14.169998
11.554158
9.4711098
7.9837837
6.8923861
6.0455609
5.36063
4.7927944
4.3219215
3.9417887
3.6470848
3.4192703
3.2404304
3.0977701
2.9845444
2.8946666
2.8215158
2.7613087
2.711014
2.66836
21.944637
21.771556
21.525119
21.353554
21.171629
20.959966
20.621268
19.760091
18.457844
16.638213
14.169486
11.551769
9.4686544
7.9816009
6.8904047
6.0437296
5.3589236
4.7912078
4.3204724
3.9405241
3.6459939
3.4183337
3.2396367
3.0970965
2.9839612
2.8941434
2.8210346
2.7608584
2.710588
2.6679542
21.944914
21.771785
21.525063
21.353437
21.171021
20.958799
20.620632
19.76096
18.459737
16.640715
14.169704
11.550203
9.4669148
7.9800003
6.8888891
6.0422725
5.3575327
4.7899017
4.3192879
3.9395214
3.645158
3.4176331
3.2390522
3.0966115
2.9835501
2.8937817
2.8207057
2.7605531
2.710301
2.6676821
21.945227
21.772051
21.525039
21.353337
21.17049
20.957773
20.620028
19.761846
18.46186
16.643629
14.170562
11.549383
9.4658326
7.9789363
6.8878096
6.0411717
5.356439
4.7888511
4.3183285
3.9387137
3.6444905
3.4170748
3.2385866
3.0962287
2.9832309
2.8935055
2.8204586
2.7603254
2.7100874
2.6674798
21.945576
21.772354
21.525046
21.353256
21.170026
20.956867
20.619468
19.762755
18.464167
16.646878
14.171971
11.549225
9.4653397
7.9783605
6.8871383
6.0404171
5.3556456
4.7880668
4.3176073
3.9381141
3.6440053
3.4166729
3.2382529
3.0959576
2.9830096
2.8933184
2.8202936
2.7601757
2.7099487
2.6673494
21.945962
21.772695
21.525083
21.353195
21.169625
20.956076
20.618958
19.763692
18.466607
16.65039
14.173852
11.549636
9.4653548
7.9782078
6.8868187
6.0399643
5.3551178
4.7875204
4.3170996
3.9376982
3.6436793
3.416407
3.2380322
3.0957801
2.9828694
2.8932044
2.8201971
2.7600903
2.7098707
2.6672769
21.946382
21.773071
21.525151
21.353155
21.169284
20.955395
20.618498
19.764667
18.469172
16.654059
14.176106
11.550592
9.4658264
7.978395
6.8867805
6.0397584
5.3548122
4.7871747
4.3167703
3.9374337
3.643485
3.4162542
3.2379077
3.0956836
2.982798
2.8931512
2.8201554
2.7600555
2.7098404
2.6672497
21.946837
21.773481
21.525249
21.353134
21.169
20.954813
20.618084
19.765712
18.471841
16.657844
14.178754
11.552008
9.4666345
7.9788378
6.8869576
6.039744
5.354681
4.7869875
4.3165819
3.9372882
3.6433847
3.4161838
3.2378546
3.0956465
2.982775
2.8931387
2.8201501
2.7600539
2.7098406
2.667251
21.947328
21.773927
21.525377
21.353134
21.168765
20.954317
20.617742
19.766811
18.474602
16.661754
14.181699
11.553767
9.467697
7.9794742
6.8872976
6.039876
5.3546843
4.7869237
4.3165023
3.9372287
3.6433519
3.4161695
3.2378494
3.0956511
2.982785
2.8931527
2.8201663
2.7600712
2.7098585
2.6672691
21.947855
21.774408
21.525535
21.353152
21.168571
20.9539
20.61747
19.767945
18.477459
16.665779
14.184887
11.55579
9.4689528
7.9802551
6.8877577
6.0401133
5.35478
4.7869389
4.3164865
3.9372144
3.6433523
3.4161813
3.2378696
3.0956732
2.9828073
2.8931756
2.8201904
2.7600957
2.7098827
2.667293
21.948417
21.774924
21.525723
21.353189
21.168417
20.953559
20.617257
19.769107
18.48039
16.669904
14.188267
11.558017
9.4703513
7.9811341
6.8882933
6.0404101
5.3549217
4.786987
4.3164927
3.9372146
3.64336
3.4162006
3.2378939
3.0956998
2.982834
2.8932027
2.8202175
2.7601226
2.7099092
2.6673191
21.949014
21.775475
21.525941
21.353244
21.168301
20.953285
20.617095
19.770294
18.483381
16.674113
14.191804
11.560402
9.4718548
7.9820801
6.8888739
6.0407398
5.3550856
4.7870476
4.3165063
3.9372211
3.6433752
3.4162225
3.2379198
3.0957288
2.9828639
2.8932332
2.8202487
2.7601533
2.7099389
2.6673481
21.949644
21.776059
21.526187
21.353317
21.16822
20.953071
20.616977
19.771499
18.486425
16.678389
14.19546
11.562918
9.4734418
7.9830768
6.8894913
6.0410984
5.3552732
4.7871304
4.3165382
3.9372431
3.6434011
3.4162521
3.2379511
3.0957618
2.982897
2.8932667
2.8202824
2.7601865
2.7099716
2.6673802
21.950311
21.776679
21.526464
21.353411
21.168173
20.952917
20.616904
19.772724
18.489524
16.68272
14.199228
11.56555
9.4751041
7.9841187
6.8901425
6.0414853
5.3554855
4.7872314
4.3165834
3.9372738
3.6434338
3.4162872
3.2379866
3.0957957
2.9829293
2.8932988
2.8203152
2.7602198
2.7100046
2.6674127
21.951014
21.777334
21.526772
21.353523
21.168157
20.952814
20.616868
19.773963
18.492676
16.687099
14.203094
11.568277
9.4768273
7.9851958
6.8908182
6.0418918
5.3557133
4.7873439
4.3166358
3.9373098
3.6434703
3.4163246
3.2380236
3.0958323
2.9829655
2.8933351
2.8203515
2.7602554
2.7100394
2.6674469
21.951752
21.778023
21.52711
21.353655
21.168169
20.952759
20.616867
19.775213
18.495872
16.691542
14.20705
11.571089
9.4786019
7.9863025
6.8915142
6.0423163
5.3559573
4.7874702
4.3166988
3.9373529
3.6435118
3.4163665
3.2380644
3.0958724
2.9830038
2.8933723
2.8203888
2.760292
2.710075
2.6674815
21.952526
21.778747
21.527479
21.353806
21.168207
20.952748
20.6169
19.776477
18.499116
16.696046
14.211088
11.573976
9.4804211
7.9874333
6.8922259
6.0427537
5.3562121
4.7876047
4.3167666
3.9373982
3.6435543
3.41641
3.2381051
3.0959127
2.9830427
2.8934105
2.8204261
2.7603281
2.7101102
2.6675159
21.953336
21.779506
21.527878
21.353974
21.168269
20.952778
20.616966
19.777757
18.502405
16.700609
14.215207
11.57693
9.4822776
7.9885816
6.8929472
6.0431981
5.3564718
4.7877426
4.3168357
3.9374423
3.6435952
3.4164509
3.2381452
3.0959497
2.9830771
2.8934432
2.8204594
2.7603618
2.7101435
2.6675487
21.954182
21.780301
21.528307
21.354163
21.168355
20.952846
20.617062
19.779055
18.505738
16.705218
14.219394
11.579944
9.484168
7.9897454
6.8936772
6.0436487
5.3567363
4.7878837
4.3169062
3.9374869
3.6436355
3.4164907
3.2381842
3.0959884
2.9831148
2.8934805
2.8204958
2.7603972
2.710178
2.6675826
21.955063
21.78113
21.528769
21.354371
21.168462
20.952948
20.617187
19.780377
18.509119
16.709871
14.223649
11.583012
9.4860898
7.9909234
6.8944146
6.0441042
5.3570047
4.7880281
4.3169792
3.9375329
3.6436762
3.416531
3.2382242
3.0960284
2.9831534
2.8935182
2.8205333
2.7604338
2.7102135
2.6676172
21.95598
21.781995
21.529264
21.354599
21.168589
20.95308
20.61734
19.781729
18.512547
16.714568
14.227972
11.586131
9.4880344
7.9921157
6.8951602
6.0445658
5.3572778
4.7881766
4.3170552
3.937581
3.6437179
3.4165718
3.2382648
3.0960693
2.983193
2.8935571
2.8205714
2.7604708
2.7102495
2.6676524
21.956932
21.782895
21.529791
21.354849
21.168736
20.95324
20.617521
19.783111
18.516025
16.719307
14.23236
11.589299
9.4900086
7.99332
6.8959129
6.0450318
5.3575541
4.7883275
4.3171336
3.9376293
3.6437593
3.4166128
3.2383062
3.0961075
2.9832281
2.8935908
2.8206057
2.7605058
2.7102843
2.6676867
21.95792
21.783829
21.530351
21.355121
21.168902
20.953425
20.617729
19.78453
18.51955
16.724088
14.236812
11.592514
9.4920068
7.9945372
6.8966734
6.0455036
5.3578347
4.7884818
4.3172142
3.9376799
3.6438017
3.4166538
3.2383477
3.0961496
2.9832692
2.8936312
2.8206452
2.7605439
2.7103215
2.6677232
21.958943
21.784799
21.530942
21.355413
21.169087
20.953635
20.61796
19.785993
18.523123
16.728913
14.241326
11.595774
9.4940293
7.9957678
6.8974425
6.0459813
5.3581198
4.7886399
4.3172989
3.9377338
3.6438462
3.4166965
3.2383912
3.0961942
2.9833123
2.8936727
2.8206862
2.7605841
2.7103604
2.667761
21.960003
21.785802
21.531565
21.355727
21.169295
20.95387
20.618211
19.7875
18.52675
16.733783
14.245908
11.599076
9.4960766
7.9970126
6.8982219
6.0464669
5.3584107
4.7888026
4.3173872
3.937792
3.643894
3.4167411
3.2384368
3.0962419
2.9833587
2.893718
2.8207297
2.7606258
2.7104009
2.6678006
21.961094
21.786837
21.532214
21.356059
21.169519
20.954123
20.618476
19.789043
18.53042
16.738706
14.250555
11.602418
9.4981418
7.9982672
6.8990086
6.0469578
5.3587053
4.7889716
4.3174813
3.9378546
3.6439459
3.4167893
3.2384848
3.0962887
2.9834031
2.8937607
2.8207722
2.7606683
2.7104426
2.6678414
21.962225
21.78791
21.532898
21.356418
21.169768
20.9544
20.618761
19.790636
18.53414
16.743691
14.255262
11.6058
9.500233
7.9995406
6.8998112
6.0474625
5.3590116
4.7891449
4.3175803
3.9379223
3.6440021
3.4168403
3.2385348
3.09634
2.9834539
2.8938107
2.8208203
2.7607146
2.7104876
2.6678855
21.963393
21.789018
21.533611
21.356801
21.170041
20.954694
20.61906
19.792281
18.537907
16.74873
14.260032
11.609227
9.5023445
8.0008267
6.9006241
6.0479752
5.3593239
4.7893245
4.3176834
3.9379938
3.6440618
3.4168946
3.2385875
3.0963938
2.9835066
2.8938623
2.8208711
2.7607638
2.7105349
2.6679313
21.964597
21.790162
21.534356
21.357211
21.170337
20.955002
20.619371
19.793978
18.54172
16.753825
14.264868
11.612693
9.5044762
8.0021263
6.9014486
6.0484986
5.3596458
4.7895107
4.3177936
3.9380717
3.6441274
3.4169536
3.2386435
3.0964498
2.9835617
2.8939164
2.8209239
2.7608146
2.710584
2.6679792
21.965836
21.791343
21.535131
21.357648
21.170657
20.955323
20.619692
19.795729
18.54558
16.758973
14.269757
11.616195
9.5066291
8.003439
6.9022844
6.0490322
5.3599773
4.7897073
4.3179098
3.9381544
3.644197
3.4170169
3.2387031
3.0965043
2.9836123
2.8939651
2.8209726
2.7608637
2.7106325
2.6680266
21.967111
21.792559
21.535936
21.358114
21.170998
20.955654
20.620027
19.797538
18.549488
16.764178
14.274707
11.619734
9.5088029
8.004766
6.9031326
6.0495778
5.36032
4.7899136
4.3180353
3.9382439
3.6442723
3.4170846
3.2387659
3.0965647
2.9836707
2.8940222
2.8210282
2.7609172
2.7106843
2.6680772
21.968423
21.79381
21.536773
21.358608
21.171361
20.955995
20.620374
19.799401
18.553441
16.769439
14.279716
11.623311
9.5109942
8.0061052
6.9039909
6.0501333
5.3606702
4.7901291
4.3181688
3.9383397
3.6443525
3.4171565
3.2388329
3.0966285
2.9837307
2.8940796
2.8210844
2.7609719
2.7107372
2.6681285
21.96977
21.795097
21.537641
21.359133
21.171744
20.956342
20.620736
19.801318
18.557439
16.774755
14.284781
11.626921
9.5132015
8.0074552
6.9048581
6.0506974
5.3610312
4.7903515
4.3183074
3.93844
3.6444359
3.4172305
3.2389017
3.0966955
2.9837947
2.8941413
2.8211437
2.7610282
2.7107912
2.6681808
21.971154
21.796419
21.538541
21.359687
21.172147
20.956698
20.621114
19.803287
18.561484
16.780127
14.289906
11.630562
9.5154222
8.0088124
6.9057305
6.0512668
5.3613962
4.7905771
4.3184482
3.9385396
3.6445187
3.4173049
3.2389703
3.0967566
2.9838498
2.8941933
2.8211954
2.7610802
2.7108425
2.668231
21.972574
21.797777
21.539472
21.36027
21.172569
20.957063
20.62151
19.805308
18.565577
16.785553
14.295076
11.634235
9.5176561
8.0101769
6.9066089
6.0518411
5.3617656
4.7908061
4.3185911
3.9386421
3.6446035
3.4173801
3.2390394
3.0968229
2.9839134
2.8942551
2.8212543
2.7611364
2.7108967
2.6682837
21.97403
21.79917
21.540435
21.360884
21.173006
20.957435
20.621928
19.807378
18.569716
16.791036
14.300299
11.637937
9.519902
8.0115474
6.9074917
6.0524194
5.3621369
4.7910393
4.3187379
3.9387477
3.6446907
3.4174576
3.2391105
3.0968906
2.9839772
2.8943159
2.8213136
2.7611937
2.7109518
2.6683369
21.975522
21.800599
21.54143
21.361528
21.173462
20.957816
20.622364
19.809497
18.573901
16.796573
14.305572
11.641667
9.522157
8.0129231
6.9083787
6.0530012
5.3625141
4.7912755
4.3188869
3.9388552
3.6447796
3.4175362
3.2391829
3.0969601
2.9840431
2.8943793
2.8213744
2.7612515
2.7110071
2.6683905
21.977051
21.802065
21.542457
21.362202
21.173938
20.958205
20.622813
19.811663
18.578131
16.802162
14.3109
11.645422
9.5244195
8.0143011
6.9092671
6.0535838
5.3628916
4.7915115
4.3190334
3.9389597
3.6448662
3.4176139
3.2392541
3.0970218
2.9840979
2.8944305
2.8214257
2.7613035
2.7110588
2.6684412
21.978617
21.803568
21.543516
21.362906
21.174432
20.958604
20.623279
19.813875
18.582408
16.807804
14.316277
11.649204
9.5266906
8.0156831
6.9101583
6.054169
5.3632717
4.7917493
4.3191827
3.9390666
3.6449545
3.417692
3.2393268
3.0970895
2.9841627
2.8944931
2.8214856
2.7613606
2.7111138
2.6684946
21.980219
21.805108
21.544606
21.363639
21.174945
20.959013
20.623758
19.816128
18.586733
16.813499
14.321704
11.653013
9.5289698
8.0170675
6.9110518
6.0547564
5.3636545
4.7919901
4.319335
3.9391758
3.6450445
3.4177717
3.2393997
3.0971581
2.9842268
2.8945536
2.8215445
2.761418
2.7111691
2.6685481
21.981857
21.806684
21.545729
21.364402
21.175479
20.959432
20.62425
19.818423
18.591107
16.819244
14.327189
11.656845
9.5312569
8.0184546
6.9119472
6.0553461
5.3640396
4.7922325
4.3194884
3.9392848
3.6451356
3.4178523
3.2394744
3.0972306
2.9842949
2.8946189
2.8216063
2.7614762
2.7112248
2.668602
21.983532
21.808297
21.546885
21.365195
21.176031
20.959862
20.624755
19.82076
18.595533
16.825035
14.33272
11.6607
9.5335486
8.0198418
6.9128424
6.0559358
5.3644244
4.7924745
4.3196413
3.9393932
3.6452263
3.4179315
3.2395466
3.0972946
2.9843528
2.8946732
2.8216599
2.7615299
2.7112776
2.6686536
21.985243
21.809946
21.548074
21.366018
21.176603
20.960302
20.625269
19.823139
18.600007
16.830883
14.338301
11.664579
9.535845
8.0212307
6.913739
6.0565272
5.3648109
4.7927176
4.3197947
3.9395033
3.6453164
3.4180105
3.239619
3.0973646
2.9844196
2.8947374
2.8217205
2.7615874
2.711333
2.6687075
21.986991
21.811632
21.549295
21.366871
21.177197
20.960754
20.625791
19.825557
18.60453
16.836787
14.343938
11.668483
9.5381456
8.0226199
6.9146361
6.0571197
5.3651986
4.7929622
4.3199497
3.9396146
3.6454075
3.4180907
3.2396918
3.0974342
2.9844853
2.8948002
2.8217816
2.7616462
2.7113893
2.6687617
21.988775
21.813354
21.550552
21.367755
21.177814
20.961215
20.626317
19.828014
18.609101
16.842743
14.349619
11.672409
9.5404509
8.0240104
6.9155347
6.0577139
5.365588
4.7932079
4.3201055
3.9397275
3.6455001
3.4181723
3.2397665
3.0975057
2.984553
2.8948652
2.8218438
2.7617051
2.7114456
2.6688163
21.990595
21.815114
21.551842
21.368669
21.178453
20.961687
20.626847
19.830512
18.613722
16.848752
14.355347
11.676355
9.5427605
8.0254002
6.9164325
6.0583071
5.365974
4.7934525
4.3202601
3.9398368
3.6455899
3.4182521
3.239839
3.0975684
2.9846086
2.8949173
2.8218959
2.7617579
2.711498
2.6688676
21.992452
21.81691
21.553166
21.369613
21.179114
20.96217
20.627379
19.833051
18.618394
16.854819
14.361128
11.680325
9.5450746
8.0267903
6.9173311
6.0589015
5.366364
4.793698
4.3204148
3.9399478
3.6456809
3.4183322
3.2399115
3.097637
2.9846742
2.8949806
2.8219566
2.7618157
2.7115537
2.6689217
21.994346
21.818744
21.554525
21.370588
21.179798
20.962664
20.627912
19.835632
18.623118
16.86094
14.366967
11.684316
9.5473914
8.0281799
6.9182299
6.0594971
5.3667553
4.7939447
4.3205709
3.94006
3.6457729
3.4184132
3.2399852
3.0977059
2.9847384
2.8950412
2.8220158
2.7618734
2.7116094
2.6689755
21.996277
21.820616
21.555918
21.371595
21.180504
20.963168
20.628447
19.838256
18.627891
16.867113
14.372851
11.688328
9.5497107
8.0295697
6.9191292
6.0600944
5.3671483
4.7941925
4.3207276
3.9401734
3.645866
3.4184952
3.2400606
3.0977786
2.9848069
2.8951069
2.822078
2.7619319
2.7116652
2.6690296
21.998244
21.822526
21.557347
21.372633
21.18123
20.963681
20.628985
19.840924
18.632718
16.873341
14.378777
11.692359
9.5520313
8.0309579
6.920027
6.0606913
5.3675403
4.7944389
4.3208829
3.9402834
3.6459564
3.4185752
3.240133
3.0978416
2.9848629
2.8951591
2.8221301
2.7619847
2.7117174
2.6690807
22.000249
21.824472
21.558811
21.373701
21.181978
20.964204
20.629526
19.843632
18.6376
16.879623
14.384751
11.696414
9.5543553
8.0323461
6.9209252
6.0612895
5.3679338
4.7946863
4.3210383
3.9403953
3.6460479
3.4186551
3.2402059
3.0979116
2.9849294
2.895223
2.8221903
2.7620418
2.7117724
2.6691341
22.002289
21.826455
21.560309
21.374802
21.182747
20.964735
20.63007
19.846383
18.642536
16.885959
14.39077
11.700488
9.5566826
8.0337332
6.9218234
6.0618886
5.3683287
4.7949351
4.3211955
3.9405083
3.6461404
3.4187361
3.2402789
3.0979804
2.9849942
2.8952846
2.8222504
2.7620999
2.7118282
2.6691879
22.004366
21.828475
21.561843
21.375933
21.183539
20.965274
20.630615
19.849177
18.647523
16.892346
14.396843
11.704581
9.5590109
8.0351194
6.9227217
6.0624889
5.368725
4.7951851
4.3213532
3.9406221
3.6462338
3.4188182
3.2403541
3.0980524
2.9850616
2.8953492
2.8223119
2.7621578
2.7118835
2.6692414
22.00648
21.830533
21.563413
21.377097
21.184353
20.965822
20.631158
19.852015
18.652564
16.898785
14.402955
11.708691
9.5613394
8.0365028
6.9236182
6.0630879
5.36912
4.7954333
4.321509
3.940732
3.646324
3.4188979
3.2404259
3.0981139
2.9851159
2.8953997
2.8223625
2.7622094
2.7119348
2.6692917
22.008631
21.832628
21.565019
21.378294
21.185191
20.966378
20.631699
19.854897
18.65766
16.905274
14.409113
11.712821
9.5636697
8.0378849
6.9245147
6.0636882
5.3695165
4.7956824
4.321665
3.9408434
3.6464151
3.4189774
3.240498
3.0981825
2.9851812
2.8954613
2.8224218
2.7622658
2.7119891
2.6693444
22.010819
21.83476
21.566663
21.379522
21.186052
20.966941
20.632234
19.857825
18.662808
16.911811
14.415327
11.716968
9.566001
8.0392648
6.9254104
6.0642893
5.3699146
4.7959311
4.3218229
3.9409563
3.6465073
3.4190579
3.2405705
3.0982506
2.985245
2.8955213
2.8224802
2.7623225
2.7120437
2.6693972
22.013044
21.836931
21.568343
21.380785
21.186938
20.967512
20.632761
19.860797
18.668009
16.918399
14.42158
11.721133
9.5683336
8.0406437
6.9263063
6.0648919
5.3703145
4.7961837
4.3219821
3.9410703
3.6466004
3.4191397
3.240646
3.0983236
2.9853132
2.8955864
2.8225412
2.7623797
2.7120983
2.66945
22.015307
21.839139
21.57006
21.382081
21.18785
20.968091
20.63328
19.863814
18.673264
16.925038
14.427873
11.725315
9.5706665
8.0420199
6.9272004
6.065494
5.3707136
4.7964349
4.3221396
3.9411814
3.6466909
3.4192187
3.240717
3.0983866
2.9853704
2.8956397
2.8225938
2.7624323
2.7121499
2.6695004
22.017606
21.841387
21.571813
21.383412
21.188789
20.968678
20.633786
19.866875
18.678576
16.93172
14.434199
11.729513
9.5729997
8.0433954
6.9280952
6.0660978
5.3711148
4.7966876
4.3222978
3.941294
3.6467821
3.4192979
3.2407891
3.0984561
2.9854362
2.8957029
2.822653
2.7624883
2.7122038
2.6695528
22.019942
21.843671
21.573603
21.384777
21.189752
20.969271
20.634283
19.869984
18.683946
16.938444
14.440564
11.733728
9.5753332
8.0447698
6.9289907
6.0667032
5.3715178
4.7969421
4.3224576
3.9414078
3.6468742
3.4193778
3.2408609
3.0985245
2.9855008
2.8957644
2.8227126
2.7625456
2.7122585
2.6696054
22.022314
21.845993
21.575432
21.386179
21.190739
20.969869
20.634773
19.873141
18.689375
16.945209
14.446965
11.737958
9.5776673
8.0461434
6.9298871
6.0673109
5.3719229
4.7971984
4.3226188
3.9415231
3.6469677
3.419459
3.2409344
3.0985947
2.985567
2.8958278
2.8227734
2.7626029
2.7123132
2.6696583
22.024723
21.848353
21.577298
21.387616
21.191751
20.970471
20.635257
19.876344
18.694862
16.952018
14.4534
11.742202
9.5800002
8.0475141
6.9307822
6.0679178
5.3723274
4.7974531
4.3227778
3.9416338
3.6470586
3.4195372
3.2410045
3.0986547
2.9856202
2.8958775
2.822823
2.7626533
2.7123632
2.6697074
22.02717
21.850751
21.579203
21.389089
21.192786
20.971077
20.635732
19.879594
18.700409
16.958867
14.459867
11.746459
9.582335
8.0488844
6.9316787
6.068527
5.3727345
4.7977096
4.3229377
3.9417466
3.6471496
3.4196161
3.2410751
3.0987212
2.9856837
2.8959388
2.8228817
2.7627091
2.7124168
2.6697594
22.029653
21.853186
21.581146
21.390598
21.193847
20.971688
20.636199
19.88289
18.706014
16.965752
14.466364
11.750729
9.5846709
8.0502542
6.9325769
6.0691391
5.3731445
4.7979689
4.3231
3.9418611
3.6472419
3.419696
3.241147
3.0987879
2.9857456
2.895997
2.8229385
2.7627644
2.7124702
2.669811
22.032174
21.855659
21.583129
21.392144
21.194933
20.972304
20.636658
19.886229
18.711675
16.972677
14.472889
11.755011
9.5870075
8.0516247
6.9334775
6.0697547
5.373558
4.7982308
4.3232643
3.9419779
3.6473359
3.4197774
3.241221
3.0988593
2.9858128
2.8960614
2.8229993
2.7628213
2.7125243
2.6698632
22.034733
21.85817
21.585152
21.393727
21.196047
20.972925
20.637109
19.889613
18.717392
16.979647
14.479444
11.759304
9.5893431
8.0529938
6.934378
6.0703712
5.3739714
4.7984919
4.3234273
3.9420891
3.6474266
3.4198576
3.2412913
3.0989192
2.9858654
2.8961101
2.8230481
2.762871
2.7125738
2.6699118
22.037328
21.860721
21.587214
21.395347
21.197187
20.973552
20.637549
19.89304
18.723166
16.986654
14.486016
11.763605
9.5916807
8.0543651
6.9352815
6.0709895
5.374389
4.7987561
4.3235924
3.9422056
3.6475198
3.4199374
3.241363
3.0989877
2.9859307
2.8961729
2.8231071
2.7629267
2.7126272
2.6699636
22.039959
21.863307
21.589311
21.397003
21.198353
20.974184
20.637979
19.896508
18.728993
16.993694
14.492607
11.767918
9.5940198
8.0557379
6.9361875
6.071616
5.3748124
4.7990257
4.3237622
3.9423253
3.6476155
3.4200193
3.2414358
3.0990557
2.9859944
2.8962331
2.8231657
2.7629832
2.7126814
2.6700158
22.042627
21.865934
21.591451
21.398699
21.199551
20.974824
20.638403
19.900019
18.734878
17.00077
14.499214
11.772241
9.596364
8.0571155
6.9370996
6.0722441
5.3752395
4.7992981
4.3239339
3.9424468
3.6477113
3.420103
3.2415112
3.0991276
2.9860618
2.8962975
2.8232268
2.7630404
2.7127357
2.6700682
22.045333
21.868597
21.59363
21.400435
21.200777
20.975471
20.63882
19.903571
18.740814
17.007877
14.505833
11.776568
9.5987075
8.0584915
6.9380109
6.0728738
5.3756656
4.7995687
4.3241028
3.9425625
3.6478035
3.4201828
3.2415819
3.099186
2.986112
2.8963437
2.8232735
2.7630887
2.7127841
2.6701159
22.048076
21.871299
21.595849
21.40221
21.202034
20.976126
20.63923
19.907164
18.746803
17.015011
14.512462
11.780901
9.6010541
8.0598711
6.9389262
6.0735074
5.3760956
4.7998423
4.3242735
3.9426815
3.647898
3.4202632
3.2416536
3.0992535
2.9861764
2.8964055
2.823332
2.7631439
2.7128371
2.6701673
22.050856
21.874039
21.598107
21.404026
21.203323
20.97679
20.639633
19.910799
18.752843
17.022168
14.519089
11.785239
9.6034049
8.061255
6.9398464
6.0741463
5.3765311
4.800121
4.3244488
3.9428037
3.6479949
3.4203457
3.2417266
3.0993209
2.9862389
2.8964638
2.8233888
2.7631992
2.7128904
2.6702188
22.053674
21.876817
21.600406
21.405882
21.204643
20.977465
20.640032
19.914471
18.758933
17.029348
14.525729
11.789578
9.6057609
8.0626447
6.9407701
6.0747917
5.3769727
4.800405
4.3246284
3.94293
3.648095
3.4204314
3.2418044
3.0993957
2.9863085
2.89653
2.8234505
2.7632564
2.7129447
2.6702712
22.05653
21.879633
21.602746
21.407779
21.205996
20.978151
20.640428
19.918179
18.765071
17.03655
14.532367
11.793926
9.6081204
8.0640379
6.9416994
6.0754395
5.377414
4.80069
4.3248082
3.943054
3.6481926
3.4205145
3.2418774
3.0994579
2.9863634
2.8965805
2.8235006
2.7633072
2.7129949
2.6703204
22.05942
21.882484
21.605125
21.409714
21.20738
20.978848
20.640819
19.92192
18.771249
17.043763
14.539001
11.798277
9.6104845
8.0654364
6.9426359
6.0760936
5.3778634
4.8009798
4.3249914
3.9431822
3.6482934
3.4205994
3.2419531
3.0995299
2.9864311
2.8966452
2.8235608
2.7633638
2.7130491
2.670373
22.062349
21.885377
21.607546
21.411693
21.208802
20.979562
20.641215
19.925698
18.777473
17.050989
14.545633
11.802633
9.612857
8.066844
6.943578
6.0767528
5.3783168
4.8012731
4.3251777
3.9433127
3.6483956
3.4206853
3.2420284
3.0996001
2.9864967
2.8967072
2.823621
2.7634215
2.7131042
2.6704259
22.065315
21.888308
21.610007
21.413713
21.210262
20.980293
20.641615
19.929508
18.783737
17.058223
14.552256
11.806991
9.6152341
8.0682576
6.9445252
6.0774164
5.3787738
4.8015693
4.325366
3.9434452
3.6484997
3.4207734
3.2421069
3.0996743
2.9865659
2.8967732
2.8236834
2.7634798
2.7131595
2.6704793
22.068318
21.891276
21.612508
21.415774
21.21176
20.981043
20.642019
19.933348
18.790036
17.06546
14.558863
11.811348
9.6176156
8.0696762
6.9454763
6.0780821
5.3792315
4.8018652
4.3255531
3.9435732
3.6485998
3.4208582
3.2421809
3.0997349
2.9866179
2.8968209
2.8237316
2.7635294
2.7132091
2.6705281
22.071358
21.894281
21.615049
21.417876
21.213297
20.981813
20.642431
19.937215
18.796367
17.072699
14.565455
11.815708
9.6200055
8.0711035
6.946435
6.078754
5.3796945
4.802165
4.3257429
3.9437055
3.6487031
3.4209448
3.2422567
3.0998052
2.9866845
2.8968848
2.823792
2.7635864
2.7132637
2.670581
22.074436
21.897323
21.61763
21.420021
21.214873
20.982606
20.642854
19.941108
18.80273
17.079933
14.57203
11.82007
9.6224053
8.0725397
6.9474015
6.0794321
5.3801628
4.8024698
4.3259371
3.9438409
3.6488088
3.4210318
3.2423341
3.0998753
2.9867489
2.8969446
2.8238502
2.7636431
2.7133184
2.6706338
22.07755
21.900404
21.62025
21.422209
21.21649
20.983424
20.64329
19.945025
18.80912
17.087158
14.578589
11.824436
9.6248154
8.0739859
6.9483764
6.0801171
5.3806369
4.8027791
4.326135
3.94398
3.6489177
3.4211236
3.2424162
3.099953
2.9868208
2.8970128
2.8239139
2.7637021
2.7133742
2.6706877
22.080703
21.903524
21.62291
21.424439
21.218148
20.984269
20.643744
19.948965
18.815534
17.094371
14.585129
11.828801
9.627234
8.0754398
6.9493569
6.0808055
5.3811125
4.8030887
4.3263323
3.9441158
3.6490235
3.4212123
3.2424931
3.1000167
2.9868758
2.8970628
2.8239638
2.7637532
2.713425
2.6707376
22.083892
21.906681
21.625612
21.426712
21.219848
20.985145
20.64422
19.952921
18.821968
17.101567
14.591652
11.833171
9.6296631
8.0769044
6.9503459
6.0815004
5.3815929
4.8034016
4.3265318
3.9442554
3.6491322
3.4213027
3.2425727
3.1000912
2.9869452
2.8971289
2.8240252
2.7638108
2.7134802
2.6707911
22.087118
21.909876
21.628355
21.429027
21.22159
20.986054
20.644722
19.956885
18.828422
17.108744
14.598153
11.837543
9.6321029
8.0783796
6.9513433
6.0822019
5.3820779
4.8037183
4.3267351
3.944398
3.649243
3.4213947
3.2426523
3.100164
2.9870125
2.8971918
2.8240862
2.7638696
2.7135365
2.6708453
22.09038
21.913109
21.631139
21.431385
21.223375
20.987001
20.645253
19.960857
18.83489
17.115899
14.604633
11.841917
9.6345544
8.079867
6.9523505
6.0829108
5.3825705
4.804039
4.3269415
3.9445432
3.6493567
3.42149
3.242737
3.1002431
2.9870852
2.8972604
2.8241505
2.7639293
2.7135931
2.6708999
22.093678
21.91638
21.633962
21.433786
21.225203
20.987985
20.645817
19.964835
18.841367
17.123028
14.611092
11.846293
9.6370165
8.081364
6.9533642
6.0836229
5.3830614
4.8043589
4.3271465
3.9446847
3.6494667
3.4215819
3.2428162
3.100308
2.9871411
2.8973112
2.8242012
2.7639812
2.7136447
2.6709506
22.097015
21.919688
21.636825
21.43623
21.227074
20.989005
20.646414
19.968833
18.847849
17.13013
14.617531
11.850673
9.6394913
8.0828732
6.954387
6.084339
5.3835574
4.8046825
4.3273539
3.9448301
3.6495799
3.4216757
3.2428984
3.1003839
2.9872116
2.8973777
2.8242633
2.7640396
2.7137007
2.6710049
22.100388
21.923033
21.639729
21.438716
21.228991
20.990062
20.647046
19.972848
18.854333
17.137204
14.623949
11.855059
9.641979
8.0843945
6.9554193
6.0850646
5.3840584
4.8050102
4.3275652
3.9449784
3.6496951
3.4217711
3.2429807
3.1004586
2.9872801
2.8974411
2.8243245
2.7640988
2.7137576
2.6710598
22.103798
21.926416
21.642673
21.441246
21.230953
20.991158
20.647717
19.976876
18.860816
17.14425
14.630348
11.859451
9.6444801
8.0859285
6.9564622
6.0857972
5.3845647
4.8053417
4.3277794
3.9451292
3.649813
3.4218699
3.2430687
3.1005413
2.9873555
2.8975118
2.8243898
2.7641593
2.7138149
2.6711152
22.107246
21.929838
21.645656
21.443821
21.23296
20.992296
20.64843
19.980915
18.867292
17.151265
14.636727
11.863845
9.646992
8.0874723
6.9575119
6.0865334
5.3850717
4.805672
4.327992
3.9452774
3.6499279
3.4219649
3.2431505
3.1006114
2.9874178
2.8975688
2.8244453
2.7642146
2.7138691
2.671168
22.110729
21.933297
21.64868
21.44644
21.235013
20.993477
20.649188
19.984961
18.873757
17.158254
14.643095
11.868245
9.6495166
8.0890275
6.9585705
6.0872763
5.385583
4.8060049
4.3282061
3.945428
3.6500448
3.4220615
3.2432352
3.1006903
2.9874907
2.8976376
2.8245088
2.7642742
2.7139262
2.6712234
22.114249
21.936795
21.651747
21.449102
21.237111
20.994703
20.649994
19.989013
18.880205
17.165214
14.649438
11.872652
9.6520543
8.0905941
6.9596377
6.0880255
5.3860981
4.8063381
4.3284226
3.9455807
3.6501632
3.4221592
3.2433197
3.1007678
2.9875619
2.8977041
2.8245728
2.7643353
2.7139843
2.6712791
22.117805
21.940329
21.654855
21.451808
21.239254
20.995978
20.65085
19.993063
18.886642
17.172147
14.655769
11.877067
9.6546068
8.0921727
6.9607145
6.0887821
5.3866182
4.806677
4.3286416
3.9457358
3.6502839
3.4222594
3.2434074
3.1008488
2.9876361
2.897774
2.8246387
2.7643968
2.7140427
2.6713355
22.121397
21.9439
21.658003
21.454557
21.241442
20.997298
20.651754
19.997119
18.893069
17.179057
14.662086
11.881487
9.6571695
8.0937606
6.961798
6.0895423
5.3871393
4.8070147
4.3288584
3.9458867
3.650401
3.4223565
3.2434907
3.1009184
2.9876968
2.8978295
2.8246933
2.7644517
2.7140968
2.6713884
22.125027
21.947509
21.661192
21.457349