/*--------------------------------*- C++ -*----------------------------------*\
| =========                 |                                                 |
| \\      /  F ield         | OpenFOAM: The Open Source CFD Toolbox           |
|  \\    /   O peration     | Version:  v2012                                 |
|   \\  /    A nd           | Website:  www.openfoam.com                      |
|    \\/     M anipulation  |                                                 |
\*---------------------------------------------------------------------------*/
FoamFile
{
    version     2.0;
    format      ascii;
    class       volScalarField;
    location    "100";
    object      T;
}
// * * * * * * * * * * * * * * * * * * * * * * * * * * * * * * * * * * * * * //

dimensions      [0 0 0 1 0 0 0];


internalField   nonuniform List<scalar> 
24000
(
43.085319
43.237564
43.472394
43.628942
43.772732
43.94899
44.355448
45.630141
47.73534
51.29715
57.846574
68.931181
83.275281
98.82881
115.02371
131.82851
148.84721
165.68314
181.61601
195.8252
208.10185
218.56633
227.43044
234.92791
241.29979
246.759
251.4811
255.60576
259.24391
262.48404
43.082643
43.235481
43.470474
43.626404
43.771034
43.948096
44.349834
45.627298
47.734316
51.293806
57.836161
68.850066
83.118416
98.581162
114.667
131.35535
148.25606
164.99002
180.87127
195.07801
207.38021
217.88575
226.79291
234.32664
240.72682
246.20713
250.9446
255.08031
258.72635
261.97209
43.079747
43.232644
43.468197
43.624324
43.770973
43.949222
44.340945
45.622505
47.727031
51.27713
57.794768
68.777912
83.002002
98.410728
114.42848
131.03933
147.85538
164.52358
180.37353
194.56983
206.88185
217.41023
226.34706
233.9108
240.33595
245.83485
250.58523
254.72956
258.38127
261.63082
43.076818
43.229768
43.465624
43.622158
43.770055
43.948518
44.335086
45.616948
47.717981
51.262246
57.774107
68.754031
82.970962
98.372181
114.39003
131.00567
147.83511
164.51597
180.39013
194.62347
206.9696
217.52191
226.47149
234.03984
240.46531
245.96284
250.7115
254.85422
258.50455
261.75289
43.073864
43.226863
43.463003
43.619911
43.768855
43.947468
44.329748
45.611229
47.708546
51.246762
57.753279
68.735067
82.953308
98.354816
114.37325
130.98837
147.81314
164.49224
180.36698
194.60233
206.95159
217.50763
226.46115
234.0332
240.46174
245.96159
250.71184
254.85554
258.50637
261.75483
43.070885
43.223931
43.46035
43.6176
43.767442
43.946173
44.324859
45.605409
47.698807
51.230861
57.732192
68.71747
82.940419
98.346263
114.36983
130.99017
147.81909
164.50162
180.37946
194.61801
206.97049
217.52942
226.48525
234.059
240.48873
245.98937
250.7401
254.88402
258.53484
261.7831
43.067882
43.220975
43.457668
43.615234
43.765863
43.944701
44.320344
45.599534
47.688758
51.214319
57.709971
68.698654
82.926747
98.337766
114.36743
130.99391
147.82745
164.5133
180.39317
194.63276
206.98609
217.54591
226.50264
234.07721
240.50764
246.00882
250.75989
254.90398
258.55481
261.80294
43.064856
43.217995
43.45496
43.61282
43.764148
43.943089
44.316118
45.593607
47.678391
51.197128
57.686547
68.677997
82.910971
98.327383
114.36353
130.99663
147.83529
164.52493
180.40707
194.6476
207.00146
217.56175
226.51892
234.09387
240.52462
246.02603
250.77725
254.92139
258.57217
261.82017
43.061806
43.214991
43.452226
43.610364
43.762313
43.941357
44.31214
45.587635
47.667721
51.179323
57.661951
68.655336
82.892608
98.314254
114.35685
130.99655
147.84034
164.53377
180.41811
194.65937
207.01347
217.57392
226.53124
234.10633
240.53723
246.03875
250.79003
254.93417
258.58491
261.83282
43.058733
43.211964
43.449469
43.607868
43.760367
43.939514
44.308392
45.581607
47.656774
51.160979
57.636313
68.630787
82.871715
98.298341
114.34724
130.99343
147.84228
164.53949
180.42607
194.66807
207.02238
217.58294
226.54033
234.11547
240.54641
246.04796
250.79925
254.94338
258.59407
261.8419
43.055637
43.208914
43.446689
43.605337
43.758317
43.937565
44.304864
45.575528
47.64559
51.142175
57.609787
68.604535
82.848548
98.279914
114.33493
130.98741
147.84121
164.54217
180.43101
194.67378
207.02834
217.58901
226.54647
234.12165
240.55261
246.05418
250.80547
254.94958
258.60024
261.84802
43.05252
43.205841
43.443888
43.602774
43.756174
43.935517
44.301528
45.569387
47.634236
51.122969
57.5825
68.576872
82.823535
98.259456
114.3204
130.97903
147.8377
164.54244
180.43365
194.67736
207.03229
217.59318
226.55079
234.12606
240.55708
246.05869
250.81
254.95411
258.60474
261.85249
43.049381
43.202749
43.441066
43.600182
43.753946
43.933382
44.298315
45.563181
47.622807
51.103411
57.554598
68.548093
82.797093
98.237402
114.30412
130.96874
147.83226
164.54086
180.43462
194.67945
207.03493
217.59615
226.55398
234.12938
240.5605
246.06217
250.81351
254.95763
258.60826
261.85597
43.046224
43.199643
43.438224
43.597565
43.751645
43.931169
44.295212
45.556915
47.611202
51.083722
57.526237
68.518457
82.769555
98.214134
114.28651
130.95705
147.82544
164.53805
180.43461
194.68085
207.03707
217.59876
226.55689
234.13247
240.5637
246.06544
250.81681
254.96094
258.61156
261.85925
43.043046
43.196515
43.43537
43.594929
43.749274
43.92888
44.292219
45.55059
47.599429
51.063952
57.497519
68.488167
82.741192
98.189952
114.26789
130.94426
147.81753
164.53422
180.43372
194.6815
207.03859
217.60082
226.5593
234.13509
240.56645
246.06827
250.81969
254.96384
258.61446
261.86213
43.039844
43.193364
43.432501
43.592271
43.746845
43.926522
44.289326
45.544215
47.58752
51.044088
57.468497
68.457391
82.71221
98.165093
114.2485
130.93061
147.80873
164.52953
180.432
194.6814
207.03944
217.60229
226.56117
234.13722
240.56875
246.07067
250.82216
254.96634
258.61697
261.86462
43.036618
43.190192
43.429613
43.589597
43.744359
43.924111
44.286522
45.537805
47.575498
51.024134
57.439233
68.426228
82.682745
98.139689
114.22848
130.91622
147.7991
164.52394
180.42938
194.68043
207.03945
217.60296
226.56229
234.13864
240.57036
246.07243
250.824
254.96823
258.61888
261.86652
43.033369
43.186998
43.426708
43.586907
43.741827
43.921651
44.283789
45.531347
47.563361
51.004064
57.40984
68.394749
82.652898
98.113867
114.20797
130.90124
147.78884
164.51776
180.42621
194.67901
207.03911
217.60336
226.56319
234.13987
240.57182
246.07404
250.8257
254.96999
258.62065
261.86828
43.030095
43.183781
43.423786
43.584201
43.739257
43.919149
44.28111
45.524837
47.551121
50.983861
57.380362
68.363012
82.622742
98.087704
114.18703
130.88575
147.778
164.51096
180.42244
194.677
207.03821
217.60323
226.5636
234.14064
240.57284
246.07523
250.82701
254.97136
258.62205
261.86968
43.026798
43.180542
43.420847
43.581481
43.736658
43.916616
44.27846
45.518273
47.538794
50.963524
57.350801
68.331077
82.592348
98.061285
114.16578
130.86985
147.76671
164.5037
180.41824
194.67462
207.03701
217.60285
226.5638
234.14124
240.57372
246.0763
250.8282
254.97262
258.62334
261.87097
43.023477
43.17728
43.417891
43.578748
43.734038
43.914058
44.27582
45.511652
47.526395
50.943086
57.321176
68.298982
82.561776
98.034675
114.14428
130.85361
147.75502
164.49601
180.41361
194.67184
207.03542
217.6021
226.56365
234.14151
240.57428
246.07706
250.8291
254.97361
258.62437
261.87201
43.020132
43.173996
43.414918
43.576004
43.731407
43.911486
44.27317
45.504973
47.513933
50.922564
57.291469
68.266753
82.531093
98.007963
114.12264
130.83719
147.74312
164.48815
180.40887
194.66903
207.03386
217.60144
226.56362
234.1419
240.57497
246.07796
250.83013
254.97472
258.62551
261.87315
43.016763
43.170689
43.411929
43.57325
43.72877
43.908908
44.270494
45.498234
47.501401
50.901956
57.261676
68.234407
82.500316
97.981157
114.10086
130.82053
147.73093
164.47995
180.40377
194.66584
207.03193
217.6004
226.56321
234.14193
240.57531
246.07851
250.83083
254.9755
258.62634
261.87398
43.013372
43.167359
43.408922
43.570485
43.726133
43.906328
44.267775
45.491442
47.488802
50.881271
57.231817
68.201972
82.469465
97.954288
114.07897
130.80369
147.71849
164.47148
180.3984
194.66241
207.02979
217.59919
226.56266
234.14183
240.57553
246.07896
250.83143
254.97619
258.62707
261.87472
43.009959
43.164008
43.405899
43.56771
43.723501
43.903751
44.265002
45.484603
47.476151
50.860519
57.201887
68.16946
82.438561
97.927372
114.05699
130.78668
147.7058
164.46269
180.39269
194.65862
207.02729
217.5976
226.56173
234.14137
240.5754
246.07906
250.83169
254.97656
258.62749
261.87515
43.006527
43.16064
43.402859
43.564926
43.720878
43.901182
44.262168
45.477705
47.463453
50.83971
57.171872
68.136877
82.407632
97.900457
114.03498
130.7696
147.69303
164.45383
180.38694
194.65485
207.02486
217.59613
226.56094
234.14106
240.57542
246.07931
250.83209
254.97705
258.62803
261.87569
43.003074
43.157253
43.399801
43.56213
43.718266
43.898623
44.259269
45.470748
47.450703
50.818827
57.141796
68.104225
82.376675
97.873527
114.01293
130.7524
147.68004
164.44469
180.38086
194.65074
207.02207
217.59429
226.55978
234.14036
240.57505
246.07918
250.83213
254.97718
258.62822
261.87589
42.999596
43.153843
43.396726
43.559324
43.715667
43.896077
44.256301
45.463733
47.437892
50.797886
57.111661
68.071526
82.345703
97.846594
113.99084
130.73509
147.66688
164.43534
180.37457
194.64641
207.01908
217.59228
226.55847
234.13954
240.57458
246.07896
250.83206
254.97722
258.62831
261.876
42.996093
43.150409
43.393642
43.556507
43.713083
43.893544
44.253264
45.456663
47.425027
50.776889
57.08145
68.038773
82.314713
97.819657
113.9687
130.71766
147.65352
164.42571
180.36792
194.64168
207.01568
217.58983
226.55672
234.13828
240.57368
246.0783
250.83159
254.97686
258.62801
261.87572
42.992567
43.146951
43.390541
43.553683
43.71051
43.891024
44.250164
45.449538
47.412111
50.755823
57.051183
68.005971
82.283727
97.792755
113.94659
130.70022
147.64011
164.416
180.36121
194.63694
207.01229
217.58744
226.55504
234.1371
240.57285
246.07773
250.83117
254.97655
258.62775
261.87548
42.989016
43.143469
43.387421
43.550847
43.707944
43.888515
44.247005
45.442365
47.399149
50.734694
57.020874
67.973117
82.252731
97.76586
113.92445
130.68268
147.62652
164.40606
180.35421
194.63184
207.00851
217.58464
226.55294
234.1355
240.5716
246.07673
250.83036
254.97585
258.62711
261.87486
42.98544
43.139962
43.384283
43.548
43.705388
43.886016
44.243794
45.43516
47.386121
50.713504
56.990504
67.940232
82.221737
97.738994
113.90232
130.66512
147.61287
164.39603
180.3471
194.62665
207.00465
217.58175
226.55078
234.13384
240.57031
246.0757
250.8295
254.9751
258.62643
261.87419
42.98184
43.136432
43.381124
43.545139
43.702837
43.883526
44.240538
45.427907
47.373027
50.692249
56.960091
67.9073
82.190758
97.712161
113.8802
130.64751
147.59912
164.38584
180.33979
194.6212
207.0005
217.57856
226.54829
234.13186
240.56869
246.07434
250.82833
254.97405
258.62544
261.87324
42.978215
43.132876
43.377946
43.542263
43.700288
43.881047
44.237242
45.420608
47.359879
50.670924
56.929652
67.874325
82.1598
97.685391
113.85815
130.62996
147.58543
164.37575
180.33263
194.61596
206.9966
217.57566
226.54611
234.13018
240.56737
246.07327
250.82743
254.97325
258.62471
261.87252
42.974569
43.129296
43.374746
43.539372
43.69774
43.878574
44.233916
45.413265
47.346676
50.649529
56.899169
67.841296
82.128841
97.658644
113.8361
130.61235
147.57162
164.36551
180.32529
194.6105
206.99245
217.57247
226.54362
234.12818
240.56573
246.07188
250.82622
254.97216
258.62368
261.87151
42.9709
43.125691
43.371526
43.536464
43.695192
43.876107
44.23056
45.405879
47.333408
50.628075
56.868655
67.808237
82.097894
97.631938
113.81407
130.59474
147.55778
164.35522
180.31792
194.60505
206.98832
217.56933
226.5412
234.12627
240.56418
246.07059
250.82509
254.97115
258.62273
261.87058
42.967212
43.122066
43.368284
43.533539
43.692643
43.873644
44.227177
45.398453
47.320067
50.606541
56.83813
67.775128
82.066962
97.605275
113.79206
130.57708
147.54384
164.3448
180.31038
194.59938
206.98396
217.56592
226.53849
234.12405
240.56232
246.06899
250.82368
254.96985
258.6215
261.86939
42.963502
43.118424
43.365019
43.530597
43.690091
43.871185
44.223772
45.390996
47.306667
50.58494
56.807575
67.741982
82.036083
97.578709
113.77016
130.55952
147.53002
164.33456
180.3031
194.59405
206.97999
217.56296
226.53625
234.12232
240.56094
246.06785
250.8227
254.96898
258.62068
261.86859
42.959768
43.114757
43.361732
43.527636
43.687535
43.868731
44.220348
45.383516
47.293208
50.563279
56.776994
67.708799
82.005233
97.552205
113.74829
130.54194
147.51612
164.32418
180.29564
194.5885
206.97576
217.5597
226.53368
234.12023
240.55919
246.06635
250.82138
254.96777
258.61954
261.86747
42.956009
43.111064
43.358422
43.524657
43.684974
43.866281
44.21691
45.375999
47.279691
50.541544
56.746398
67.675591
81.974423
97.525778
113.72648
130.52437
147.5022
164.31379
180.28817
194.58295
206.97155
217.55648
226.53119
234.11824
240.55755
246.06496
250.82016
254.96666
258.61849
261.86644
42.952226
43.107345
43.355092
43.521658
43.682407
43.863833
44.213465
45.368447
47.266105
50.519748
56.715762
67.64235
81.943656
97.499427
113.70472
130.50679
147.48822
164.30326
180.28052
194.57719
206.96709
217.55297
226.52836
234.1159
240.55556
246.06323
250.81861
254.96523
258.61713
261.86511
42.948418
43.103601
43.351747
43.518639
43.679832
43.861385
44.210018
45.36086
47.25247
50.4979
56.685055
67.609089
81.912968
97.473208
113.6831
130.48935
147.47439
164.29297
180.2732
194.57183
206.96311
217.55
226.52612
234.11415
240.55417
246.06207
250.81761
254.96433
258.61628
261.86428
42.944585
43.099831
43.348378
43.5156
43.677248
43.858938
44.20657
45.353238
47.238786
50.475993
56.654292
67.575812
81.882339
97.447067
113.66152
130.47188
147.46048
164.28254
180.26568
194.56623
206.95883
217.54669
226.52349
234.112
240.55235
246.0605
250.81621
254.96304
258.61506
261.86308
42.940728
43.096035
43.344984
43.512546
43.674657
43.856492
44.203125
45.34558
47.225052
50.454035
56.623469
67.542518
81.85177
97.421014
113.64
130.45442
147.44655
164.27207
180.25813
194.56063
206.95459
217.54344
226.52096
234.10998
240.55068
246.05908
250.81495
254.96189
258.61396
261.86201
42.936848
43.092213
43.341565
43.509472
43.672059
43.854046
44.199686
45.337904
47.211253
50.432022
56.59259
67.509205
81.82126
97.395044
113.61851
130.43693
147.43251
164.26145
180.25037
194.55475
206.95001
217.53982
226.51804
234.10753
240.54858
246.05723
250.81329
254.96035
258.6125
261.86058
42.932947
43.088364
43.338121
43.506379
43.669448
43.851599
44.196259
45.330197
47.197396
50.409957
56.561677
67.475885
81.790838
97.369211
113.59715
130.41955
147.41862
164.25103
180.24289
194.54924
206.9459
217.53673
226.51568
234.10567
240.54708
246.05597
250.81219
254.95935
258.61155
261.85965
42.929025
43.084494
43.334651
43.503264
43.666824
43.849152
44.19285
45.322453
47.183479
50.387838
56.53073
67.442571
81.76048
97.343464
113.57583
130.40212
147.40463
164.24047
180.23521
194.54347
206.94146
217.53327
226.51291
234.10339
240.54514
246.05427
250.81066
254.95794
258.6102
261.85833
42.925084
43.080603
43.331156
43.500126
43.664187
43.846702
44.189465
45.314671
47.169502
50.365663
56.499757
67.409257
81.730203
97.317822
113.55456
130.38471
147.39062
164.2299
180.22754
194.53773
206.93708
217.52989
226.51026
234.10125
240.54335
246.05274
250.8093
254.95668
258.60901
261.85716
42.921118
43.076691
43.327634
43.496965
43.661533
43.844249
44.186112
45.306849
47.155445
50.343436
56.468784
67.375941
81.700001
97.292272
113.53334
130.36723
147.37652
164.21922
180.21968
194.53174
206.9324
217.52618
226.50725
234.09872
240.54118
246.05082
250.80756
254.95506
258.60746
261.85565
42.917129
43.072752
43.324086
43.49378
43.65886
43.841792
44.182793
45.298987
47.141317
50.321155
56.43782
67.342638
81.669899
97.266869
113.51224
130.34986
147.36258
164.2088
180.21218
194.52618
206.92823
217.52305
226.50486
234.09684
240.53965
246.04953
250.80644
254.95404
258.6065
261.8547
42.913115
43.068788
43.320511
43.490573
43.656167
43.839336
44.17951
45.291094
47.12711
50.298812
56.406875
67.309361
81.639875
97.241562
113.49117
130.33242
147.34855
164.1983
180.20452
194.52038
206.92377
217.51957
226.50208
234.09455
240.53769
246.04782
250.8049
254.95262
258.60514
261.85337
42.909076
43.064797
43.316909
43.487342
43.653454
43.836875
44.176267
45.283173
47.112828
50.276415
56.375984
67.276096
81.609939
97.216369
113.47015
130.31492
147.3345
164.18786
180.19694
194.51465
206.91938
217.5162
226.49945
234.09242
240.53593
246.04631
250.80356
254.95138
258.60396
261.85222
42.905014
43.060781
43.313288
43.484087
43.650721
43.834409
44.17306
45.275212
47.098446
50.253954
56.345167
67.242842
81.58009
97.191271
113.44916
130.29726
147.32034
164.1774
180.18919
194.50866
206.91468
217.51246
226.49641
234.08988
240.53374
246.04438
250.80181
254.94976
258.60241
261.85069
42.900927
43.056738
43.309645
43.480809
43.647972
43.831943
44.169877
45.267212
47.083976
50.231425
56.314448
67.209617
81.550353
97.16632
113.42829
130.27961
147.30632
164.1673
180.18176
194.50306
206.91044
217.50926
226.49396
234.08794
240.53216
246.04305
250.80065
254.9487
258.60141
261.84971
42.896821
43.052669
43.305974
43.477507
43.645211
43.829478
44.166714
45.259172
47.069407
50.208832
56.28387
67.176408
81.520697
97.141461
113.40745
130.2619
147.29217
164.15702
180.1741
194.49717
206.90587
217.50568
226.4911
234.08557
240.53014
246.04128
250.79905
254.94722
258.6
261.84833
42.892693
43.048574
43.302277
43.474179
43.642433
43.827016
44.16358
45.251095
47.05474
50.186162
56.253456
67.143197
81.491128
97.116706
113.38666
130.24417
147.27797
164.14669
180.16642
194.49129
206.90134
217.50217
226.48834
234.08334
240.52828
246.03968
250.79763
254.94591
258.59875
261.84711
42.888547
43.044459
43.298551
43.470833
43.639635
43.824551
44.160479
45.242989
47.040013
50.163466
56.222994
67.109982
81.46164
97.092039
113.36591
130.2264
147.26365
164.13618
180.15852
194.48515
206.89651
217.49834
226.48523
234.08074
240.52604
246.03771
250.79584
254.94425
258.59716
261.84555
42.88438
43.040324
43.294798
43.467464
43.636815
43.822081
44.157423
45.234866
47.025245
50.140764
56.192499
67.076795
81.43226
97.067507
113.34526
130.20871
147.24943
164.12586
180.1509
194.47939
206.89215
217.49505
226.48271
234.07875
240.52442
246.03634
250.79465
254.94317
258.59614
261.84455
42.88019
43.036167
43.291017
43.464069
43.63397
43.819602
44.154423
45.226709
47.010427
50.118046
56.161972
67.043617
81.402959
97.043047
113.32462
130.19094
147.23507
164.11534
180.14304
194.47336
206.88747
217.49139
226.4798
234.07635
240.52238
246.03456
250.79305
254.94169
258.59473
261.84317
42.875976
43.031985
43.287208
43.460646
43.631093
43.817109
44.151496
45.218517
46.995562
50.095309
56.131417
67.010451
81.373739
97.01867
113.30401
130.17312
147.22062
164.10475
180.13513
194.4673
206.88281
217.4878
226.47698
234.07407
240.52049
246.03294
250.79161
254.94036
258.59347
261.84193
42.871739
43.027777
43.283371
43.457195
43.628174
43.814595
44.148662
45.210289
46.980641
50.072573
56.10085
66.977306
81.34459
96.994355
113.28339
130.15521
147.20601
164.09393
180.12695
194.46094
206.87782
217.48385
226.47379
234.07141
240.51821
246.03093
250.7898
254.93868
258.59186
261.84036
42.867479
43.023544
43.279507
43.453717
43.625206
43.812051
44.145949
45.202025
46.965672
50.049835
56.070269
66.944214
81.315536
96.970145
113.26283
130.13733
147.19144
164.08323
180.11899
194.4549
206.87322
217.48035
226.47109
234.06927
240.51645
246.02945
250.7885
254.93749
258.59074
261.83926
42.863195
43.019286
43.275614
43.450212
43.622174
43.809466
44.14339
45.193727
46.950659
50.02709
56.03968
66.911154
81.286547
96.945981
113.24224
130.11933
147.1767
164.07231
180.11078
194.44856
206.86828
217.47648
226.468
234.06672
240.51429
246.02756
250.7868
254.93592
258.58924
261.83779
42.858894
43.015002
43.271706
43.446681
43.619111
43.80687
44.14089
45.185404
46.935594
50.004362
56.009094
66.878133
81.257631
96.921866
113.22164
130.10124
147.16184
164.06129
180.10249
194.44218
206.86335
217.47266
226.46499
234.06427
240.51224
246.0258
250.78523
254.93448
258.58787
261.83645
42.854571
43.010694
43.267773
43.443127
43.616033
43.804275
44.138413
45.177037
46.920481
49.981644
55.978507
66.845173
81.228784
96.897788
113.20099
130.08302
147.1468
164.05006
180.09397
194.43554
206.85814
217.46853
226.46165
234.06149
240.50986
246.0237
250.78334
254.93272
258.58619
261.8348
42.850231
43.006366
43.263812
43.439549
43.612941
43.801682
44.135961
45.168626
46.905317
49.958933
55.947935
66.8123
81.200033
96.873794
113.18039
130.06483
147.13182
164.03897
180.0857
194.42927
206.85336
217.4649
226.45886
234.05928
240.50806
246.02218
250.78201
254.93152
258.58505
261.83369
42.845873
43.002018
43.259824
43.435946
43.609833
43.799092
44.133531
45.160173
46.890118
49.936235
55.917411
66.7795
81.171343
96.84982
113.15974
130.04648
147.11665
164.02768
180.07719
194.42272
206.84828
217.46092
226.45569
234.05667
240.50585
246.02025
250.78028
254.92992
258.58353
261.8322
42.841493
42.997653
43.255808
43.432319
43.606709
43.796508
44.131121
45.151678
46.874866
49.913543
55.886932
66.746777
81.142712
96.825862
113.13902
130.02799
147.10135
164.01627
180.0686
194.41613
206.8432
217.457
226.4526
234.05417
240.50377
246.01847
250.77871
254.92847
258.58216
261.83085
42.83709
42.993263
43.251765
43.428676
43.603568
43.793925
44.128732
45.143158
46.859577
49.890847
55.856518
66.714156
81.114132
96.801894
113.1182
130.0093
147.0858
164.00459
180.05968
194.40919
206.83774
217.45267
226.4491
234.05124
240.50125
246.01626
250.7767
254.92661
258.58038
261.82911
42.832665
42.988849
43.247694
43.425011
43.60041
43.791343
44.126364
45.134612
46.844243
49.868172
55.826181
66.68165
81.085637
96.777966
113.09738
129.99056
147.07027
163.99303
180.05095
194.40253
206.83268
217.44883
226.44614
234.04889
240.49933
246.01463
250.77528
254.92532
258.57916
261.82791
42.828219
42.984411
43.243596
43.421321
43.597234
43.788763
44.124015
45.126028
46.828878
49.845509
55.795919
66.649247
81.057185
96.754007
113.07645
129.97158
147.05447
163.98121
180.04189
194.39548
206.8272
217.44455
226.44269
234.04603
240.49689
246.0125
250.77336
254.92354
258.57746
261.82625
42.823752
42.979949
43.239471
43.417605
43.594041
43.786186
44.121685
45.117408
46.813472
49.822847
55.765752
66.616954
81.028773
96.730014
113.05541
129.95244
147.03847
163.9692
180.03267
194.38832
206.82168
217.44027
226.4393
234.04326
240.49457
246.01049
250.77157
254.92188
258.57588
261.82471
42.81927
42.975465
43.23532
43.413864
43.590835
43.78361
44.119373
45.108755
46.798034
49.800207
55.735694
66.584796
81.0004
96.705971
113.03425
129.9331
147.02221
163.95687
180.0231
194.3808
206.81576
217.43558
226.43547
234.04004
240.49179
246.00804
250.76934
254.91981
258.5739
261.82276
42.814767
42.970958
43.231154
43.410097
43.58761
43.781033
44.117078
45.100076
46.782573
49.777584
55.705747
66.552781
80.972098
96.681938
113.01306
129.91374
147.00596
163.94465
180.01378
194.37365
206.81034
217.43148
226.43229
234.03751
240.48972
246.00629
250.76781
254.91841
258.57258
261.82147
42.810252
42.966434
43.226964
43.406304
43.584371
43.778454
44.114797
45.091386
46.767084
49.754964
55.675921
66.520897
80.943836
96.657836
112.99172
129.89414
146.98942
163.9321
180.00408
194.36608
206.80445
217.42687
226.42858
234.03443
240.48709
246.00398
250.76573
254.91648
258.57074
261.81966
42.805717
42.961894
43.222746
43.402485
43.581112
43.775874
44.112526
45.082674
46.751579
49.73237
55.646229
66.489153
80.915604
96.633656
112.97024
129.87435
146.97265
163.91932
179.99419
194.35837
206.79848
217.42224
226.4249
234.03142
240.48455
246.00178
250.76377
254.91468
258.56901
261.81797
42.801161
42.957334
43.218502
43.39864
43.577832
43.773291
44.110264
45.07394
46.736051
49.709798
55.616662
66.457566
80.887392
96.609377
112.94857
129.85429
146.95554
163.90615
179.98386
194.35018
206.792
217.41706
226.42064
234.02782
240.48143
245.99901
250.76124
254.91231
258.56675
261.81575
42.796585
42.952753
43.214232
43.394769
43.574532
43.770705
44.108008
45.065184
46.720524
49.687234
55.587233
66.426136
80.859237
96.585059
112.92681
129.83415
146.93839
163.89303
179.9737
194.34228
206.78591
217.41238
226.41696
234.02484
240.47895
245.99688
250.75935
254.91057
258.56509
261.81413
42.791989
42.94815
43.209935
43.390874
43.57121
43.768114
44.105758
45.056411
46.704984
49.664702
55.55795
66.39485
80.831104
96.560634
112.90486
129.81376
146.92095
163.87957
179.96315
194.33395
206.77936
217.40718
226.41272
234.02127
240.47587
245.99415
250.75687
254.90826
258.56288
261.81195
42.787374
42.943525
43.205611
43.386963
43.567867
43.765515
44.103511
45.047637
46.689444
49.642196
55.528804
66.363731
80.803004
96.536116
112.88274
129.79317
146.9033
163.86593
179.95248
194.32555
206.77278
217.40201
226.40856
234.01783
240.47294
245.99158
250.75456
254.90611
258.56082
261.80994
42.782746
42.938878
43.201262
43.383028
43.564503
43.762909
44.101263
45.038864
46.673908
49.619704
55.499801
66.332781
80.774941
96.511493
112.86044
129.77233
146.88537
163.85198
179.94145
194.31675
206.76578
217.39639
226.40391
234.01388
240.46949
245.98851
250.75174
254.90347
258.55829
261.80745
42.7781
42.934211
43.196887
43.379066
43.561116
43.760294
44.099013
45.030081
46.658381
49.597249
55.470956
66.302003
80.74694
96.486821
112.83804
129.75143
146.86745
163.83814
179.93067
194.30834
206.75928
217.39136
226.39993
234.01064
240.46678
245.98616
250.74965
254.90154
258.55645
261.80564
42.773442
42.92953
43.192497
43.375079
43.557707
43.757669
44.096758
45.021292
46.642872
49.574822
55.442254
66.271384
80.718965
96.462031
112.81544
129.73025
146.84923
163.82398
179.91953
194.29952
206.75232
217.38581
226.39539
234.00681
240.46346
245.98322
250.74696
254.89902
258.55404
261.80328
42.768768
42.924832
43.188087
43.371065
43.554275
43.755038
44.094496
45.012499
46.627371
49.552411
55.413695
66.240937
80.691017
96.437129
112.79263
129.70884
146.8308
163.80963
179.90824
194.2906
206.74531
217.38028
226.39092
234.00308
240.46028
245.98042
250.74443
254.89667
258.55178
261.80106
42.764077
42.92012
43.183651
43.367024
43.550824
43.752396
44.092226
45.003712
46.611903
49.530039
55.385289
66.210653
80.663092
96.412099
112.7696
129.68714
146.81205
163.79492
179.89654
194.28122
206.7378
217.37421
226.38588
233.99877
240.45649
245.97702
250.74131
254.89373
258.54895
261.79829
42.759367
42.915389
43.179189
43.362958
43.547355
43.749741
44.089943
44.994943
46.596458
49.507695
55.357025
66.180539
80.635228
96.387007
112.74644
129.66533
146.79327
163.78031
179.88505
194.27219
206.73074
217.36869
226.38145
233.99512
240.4534
245.97432
250.73888
254.89147
258.54679
261.79616
42.75464
42.910638
43.174703
43.358865
43.543867
43.747075
44.087644
44.986182
46.581043
49.485367
55.328902
66.150582
80.607395
96.361795
112.72306
129.64324
146.7742
163.76539
179.8732
194.26273
206.72322
217.36265
226.37647
233.99088
240.4497
245.97101
250.73584
254.88862
258.54405
261.79347
42.749897
42.905868
43.170191
43.354746
43.540357
43.744398
44.085329
44.977427
46.565658
49.463075
55.300927
66.120794
80.579594
96.336473
112.69949
129.62091
146.75491
163.7503
179.86121
194.25318
206.71567
217.35664
226.37155
233.98675
240.44613
245.96784
250.73296
254.88591
258.54145
261.79092
42.745143
42.901078
43.165654
43.350603
43.536824
43.741708
44.082996
44.96868
46.550312
49.440806
55.27309
66.091168
80.551822
96.311027
112.67568
129.59829
146.73532
163.73487
179.84885
194.24323
206.70767
217.35015
226.36615
233.98211
240.44204
245.96416
250.72956
254.88271
258.53836
261.78788
42.740373
42.896271
43.161093
43.346447
43.533267
43.739003
44.080645
44.959949
46.53501
49.418548
55.245397
66.06171
80.524113
96.285527
112.65176
129.57557
146.71569
163.71954
179.83671
194.23362
206.70013
217.34422
226.36135
233.97811
240.43862
245.96115
250.72683
254.88016
258.53592
261.78548
42.735596
42.891453
43.15651
43.342265
43.529688
43.736285
44.078276
44.951243
46.519738
49.396321
55.21785
66.032408
80.496443
96.259919
112.62763
129.55258
146.69578
163.7039
179.82423
194.22362
206.69216
217.3378
226.35603
233.97357
240.43465
245.95758
250.72355
254.87707
258.53294
261.78256
42.730804
42.886621
43.151915
43.338057
43.526085
43.733552
44.07589
44.942562
46.504519
49.374106
55.190442
66.003275
80.468821
96.234217
112.6033
129.52935
146.67563
163.68807
179.81161
194.21353
206.68414
217.33138
226.35076
233.96912
240.43079
245.95414
250.7204
254.87412
258.5301
261.77976
42.725998
42.881778
43.147298
43.333823
43.52246
43.730805
44.073484
44.933897
46.489347
49.351895
55.163179
65.974305
80.44124
96.208411
112.57876
129.50584
146.65517
163.67191
179.79864
194.20306
206.67571
217.32453
226.34503
233.9642
240.42644
245.95022
250.71678
254.8707
258.5268
261.77652
42.721176
42.876918
43.142658
43.329563
43.518811
43.728043
44.07106
44.925251
46.474211
49.329723
55.136065
65.945504
80.413734
96.182566
112.5541
129.48221
146.63466
163.65581
179.78583
194.19286
206.66764
217.31811
226.33979
233.95979
240.42263
245.94684
250.71369
254.8678
258.52402
261.77379
42.71634
42.872042
43.137994
43.325277
43.515139
43.725268
44.068617
44.916626
46.459107
49.307575
55.109098
65.916867
80.386283
96.15664
112.52924
129.45832
146.61387
163.63943
179.77273
194.18234
206.65921
217.3113
226.33412
233.95494
240.41837
245.943
250.71015
254.86446
258.5208
261.77062
42.711495
42.867149
43.133306
43.320965
43.511443
43.722479
44.066157
44.908033
46.444045
49.285445
55.082281
65.888403
80.358892
96.130646
112.50422
129.4342
146.59287
163.62288
179.75951
194.17175
206.65076
217.3045
226.32851
233.95017
240.41421
245.93927
250.70673
254.86124
258.5177
261.76757
42.706639
42.86224
43.128596
43.316627
43.507732
43.719676
44.06368
44.899476
46.429024
49.263361
55.055612
65.860109
80.331565
96.104579
112.47901
129.40983
146.57158
163.60604
179.74601
194.16085
206.642
217.29739
226.32257
233.94505
240.4097
245.9352
250.70297
254.85769
258.51427
261.76421
42.701771
42.85732
43.123863
43.312263
43.504003
43.716861
44.061189
44.890943
46.414027
49.241302
55.0291
65.831994
80.304338
96.078503
112.45371
129.38535
146.55025
163.58926
179.73268
194.15024
206.6336
217.29068
226.31708
233.94043
240.40569
245.93163
250.69971
254.85463
258.51132
261.76131
42.6969
42.85239
43.119109
43.307887
43.500252
43.714037
44.058685