/*--------------------------------*- C++ -*----------------------------------*\
| =========                 |                                                 |
| \\      /  F ield         | OpenFOAM: The Open Source CFD Toolbox           |
|  \\    /   O peration     | Version:  v2012                                 |
|   \\  /    A nd           | Website:  www.openfoam.com                      |
|    \\/     M anipulation  |                                                 |
\*---------------------------------------------------------------------------*/
FoamFile
{
    version     2.0;
    format      ascii;
    class       volVectorField;
    location    "100";
    object      U;
}
// * * * * * * * * * * * * * * * * * * * * * * * * * * * * * * * * * * * * * //

dimensions      [0 1 -1 0 0 0 0];


internalField   nonuniform List<vector> 
24000
(
(21.829184 0.0028536284 0)
(22.356648 0.012112173 0)
(22.469548 0.016645092 0)
(22.441982 0.015733562 0)
(22.421024 0.018361773 0)
(22.440846 0.023298309 0)
(22.523726 0.031723721 0)
(22.656533 0.037479149 0)
(22.788785 0.033879355 0)
(22.945447 0.024028302 0)
(23.14025 0.0094954548 0)
(23.327373 -0.0094216443 0)
(23.410668 -0.028669566 0)
(23.357964 -0.045447376 0)
(23.170779 -0.058585966 0)
(22.801337 -0.06794727 0)
(22.134291 -0.073541146 0)
(21.008243 -0.075209101 0)
(19.325382 -0.072169694 0)
(17.192912 -0.065271391 0)
(14.821472 -0.055705104 0)
(12.411707 -0.044932178 0)
(10.118232 -0.034183372 0)
(8.0381345 -0.024426186 0)
(6.2088988 -0.016240483 0)
(4.6300434 -0.0098890674 0)
(3.2825583 -0.0053504616 0)
(2.1405906 -0.0023964786 0)
(1.1775628 -0.00075508311 0)
(0.36900408 -3.9206565e-05 0)
(21.847549 0.002615471 0)
(22.38034 0.0088595474 0)
(22.491907 0.012043268 0)
(22.466434 0.011995067 0)
(22.449551 0.013054496 0)
(22.474869 0.0131225 0)
(22.565428 0.01239974 0)
(22.709264 0.011893507 0)
(22.85199 0.009713572 0)
(23.019125 0.0056064626 0)
(23.226816 -0.0010216388 0)
(23.430444 -0.01094423 0)
(23.534581 -0.020866107 0)
(23.504714 -0.029889436 0)
(23.34373 -0.037756512 0)
(23.008091 -0.043763558 0)
(22.388705 -0.047688158 0)
(21.330796 -0.049163665 0)
(19.736875 -0.048075654 0)
(17.70693 -0.044540411 0)
(15.442175 -0.038879636 0)
(13.126075 -0.031808373 0)
(10.89255 -0.024334752 0)
(8.8229691 -0.017356042 0)
(6.9498827 -0.011455877 0)
(5.2794103 -0.006891657 0)
(3.8057764 -0.0036578218 0)
(2.5179258 -0.0015868099 0)
(1.4023881 -0.00047263852 0)
(0.44481206 -1.2964426e-05 0)
(21.848529 0.0023690702 0)
(22.37963 0.0072050092 0)
(22.490106 0.0095021991 0)
(22.463828 0.010247449 0)
(22.4465 0.011100555 0)
(22.467825 0.010199436 0)
(22.552695 0.0085162683 0)
(22.692848 0.0082820949 0)
(22.829678 0.0078676449 0)
(22.990392 0.006971659 0)
(23.190609 0.0055815587 0)
(23.385354 0.0027803918 0)
(23.480675 0.00044961299 0)
(23.44319 -0.0011816306 0)
(23.276276 -0.0020843335 0)
(22.937496 -0.0021106757 0)
(22.319577 -0.0012713477 0)
(21.266602 0.0003628053 0)
(19.673921 0.0024754526 0)
(17.635205 0.0044149911 0)
(15.348398 0.005598228 0)
(13.001312 0.0058170975 0)
(10.73711 0.0052137354 0)
(8.6470661 0.0041464714 0)
(6.7699845 0.002955332 0)
(5.1125046 0.0018758293 0)
(3.665634 0.0010410352 0)
(2.4136813 0.00047066343 0)
(1.3387126 0.00014381475 0)
(0.42282092 5.2288434e-06 0)
(21.851782 0.0016503608 0)
(22.382707 0.0057636539 0)
(22.492327 0.0074187607 0)
(22.466276 0.0081333903 0)
(22.449221 0.0087989888 0)
(22.469277 0.0081126965 0)
(22.553193 0.0063463873 0)
(22.693155 0.0057213209 0)
(22.829869 0.005926302 0)
(22.990478 0.006332491 0)
(23.19098 0.006627585 0)
(23.38657 0.005421589 0)
(23.483595 0.0040021467 0)
(23.448903 0.0026029608 0)
(23.285576 0.001486014 0)
(22.950935 0.00055765973 0)
(22.33731 -0.00017451125 0)
(21.289246 -0.00073723136 0)
(19.701759 -0.0011093127 0)
(17.666611 -0.00130642 0)
(15.382836 -0.0013811124 0)
(13.039309 -0.0013247656 0)
(10.778827 -0.0011510632 0)
(8.6910848 -0.00090373479 0)
(6.8134093 -0.00064044786 0)
(5.1520439 -0.00040636792 0)
(3.6984974 -0.00022481238 0)
(2.4379905 -0.0001019144 0)
(1.3535169 -3.1814082e-05 0)
(0.42792457 -1.3782139e-06 0)
(21.853805 0.0014046364 0)
(22.384375 0.0047162055 0)
(22.493291 0.0058755761 0)
(22.467069 0.0065726213 0)
(22.449774 0.0070731037 0)
(22.468784 0.0064962178 0)
(22.551868 0.0050091852 0)
(22.691619 0.0044496416 0)
(22.828096 0.0049067588 0)
(22.988271 0.0058298192 0)
(23.188273 0.0067823266 0)
(23.383255 0.0063617358 0)
(23.479574 0.0056546824 0)
(23.444324 0.0048599345 0)
(23.280558 0.0040751239 0)
(22.945527 0.0033402566 0)
(22.331786 0.0026918467 0)
(21.283844 0.0021255838 0)
(19.696614 0.001646902 0)
(17.661543 0.0012749031 0)
(15.377274 0.00099343023 0)
(13.032661 0.00076835739 0)
(10.770847 0.00057893946 0)
(8.6820579 0.00041704127 0)
(6.8040591 0.00028110073 0)
(5.1432395 0.00017395053 0)
(3.6910131 9.5317177e-05 0)
(2.4323795 4.2485932e-05 0)
(1.3500799 1.2502009e-05 0)
(0.42673943 5.9481689e-07 0)
(21.85557 0.0011265481 0)
(22.385808 0.0039027703 0)
(22.494257 0.0047218718 0)
(22.468012 0.0052903346 0)
(22.45057 0.0056622116 0)
(22.468803 0.005180594 0)
(22.551198 0.0039053799 0)
(22.690924 0.0033770792 0)
(22.827415 0.0038729489 0)
(22.987369 0.0049787938 0)
(23.187056 0.006134209 0)
(23.381607 0.0060198452 0)
(23.477449 0.0056129657 0)
(23.441859 0.0050347575 0)
(23.277865 0.0043987339 0)
(22.942576 0.0037288658 0)
(22.328478 0.0030638899 0)
(21.28014 0.00241036 0)
(19.692708 0.0017961294 0)
(17.657777 0.0012767448 0)
(15.373897 0.00087581725 0)
(13.029803 0.00058070986 0)
(10.768556 0.00037323161 0)
(8.6803037 0.0002324024 0)
(6.8027615 0.00013886889 0)
(5.14231 7.7805057e-05 0)
(3.6903783 3.9328818e-05 0)
(2.4319829 1.6571871e-05 0)
(1.3498745 4.6671035e-06 0)
(0.42668101 2.6332076e-07 0)
(21.856985 0.00091112578 0)
(22.386888 0.0032741013 0)
(22.494995 0.0038277748 0)
(22.468752 0.004266176 0)
(22.451177 0.0045234653 0)
(22.468794 0.0040986043 0)
(22.55055 0.0029595899 0)
(22.690183 0.0024244186 0)
(22.826643 0.002894592 0)
(22.986309 0.0040675405 0)
(23.185569 0.0052976757 0)
(23.379527 0.0053642377 0)
(23.474685 0.005155231 0)
(23.43851 0.0047659237 0)
(23.274009 0.0042749436 0)
(22.938146 0.0037069525 0)
(22.323328 0.0031080808 0)
(21.27418 0.0024910814 0)
(19.686143 0.0018908345 0)
(17.651125 0.0013689726 0)
(15.367579 0.00095793831 0)
(13.024038 0.00064949218 0)
(10.76343 0.00042713137 0)
(8.6758465 0.00027203621 0)
(6.7989869 0.00016614028 0)
(5.1392348 9.5573988e-05 0)
(3.688015 4.9663616e-05 0)
(2.4303294 2.1376097e-05 0)
(1.3489084 6.2261196e-06 0)
(0.42636003 3.3593934e-07 0)
(21.858137 0.00073243295 0)
(22.387726 0.0027812124 0)
(22.49557 0.0031265282 0)
(22.469364 0.0034378937 0)
(22.451692 0.0035892624 0)
(22.468794 0.0031835394 0)
(22.549958 0.0021318325 0)
(22.689452 0.0015735319 0)
(22.825833 0.0019934992 0)
(22.985174 0.003179716 0)
(23.183963 0.004427058 0)
(23.377277 0.0046129905 0)
(23.471715 0.0045446214 0)
(23.434919 0.0042850253 0)
(23.269869 0.0039028626 0)
(22.933388 0.0034194819 0)
(22.317807 0.0028838193 0)
(21.267804 0.002313217 0)
(19.679138 0.001747523 0)
(17.644087 0.001250655 0)
(15.36102 0.0008593214 0)
(13.018247 0.00056855535 0)
(10.758515 0.00036294685 0)
(8.6718018 0.00022365326 0)
(6.7957477 0.00013215022 0)
(5.1367235 7.326018e-05 0)
(3.6861592 3.6843724e-05 0)
(2.4290653 1.5663799e-05 0)
(1.3481804 4.6658428e-06 0)
(0.42611931 2.9822516e-07 0)
(21.85907 0.00058820922 0)
(22.388363 0.0023919916 0)
(22.495993 0.0025686812 0)
(22.469839 0.0027619442 0)
(22.452095 0.0028107418 0)
(22.468752 0.00240617 0)
(22.549359 0.0014194434 0)
(22.688673 0.00083952751 0)
(22.824926 0.0012070422 0)
(22.983905 0.0023783195 0)
(23.182182 0.0036143737 0)
(23.374808 0.0038932465 0)
(23.468497 0.0039349778 0)
(23.431055 0.0037795604 0)
(23.265427 0.0034890117 0)
(22.928307 0.0030814512 0)
(22.31196 0.0026086718 0)
(21.261126 0.0020918162 0)
(19.671896 0.0015735535 0)
(17.63692 0.0011166377 0)
(15.354478 0.00075873995 0)
(13.012618 0.0004962434 0)
(10.753879 0.00031350186 0)
(8.668105 0.00019201746 0)
(6.7928747 0.00011372575 0)
(5.1345518 6.4508668e-05 0)
(3.6845827 3.3636639e-05 0)
(2.4280007 1.4656828e-05 0)
(1.3475665 4.2233199e-06 0)
(0.42591426 2.2309045e-07 0)
(21.859822 0.00047207086 0)
(22.388834 0.0020827793 0)
(22.49628 0.0021210071 0)
(22.470186 0.0022047681 0)
(22.452388 0.0021560098 0)
(22.468659 0.0017460951 0)
(22.548749 0.00081704683 0)
(22.687843 0.00022467953 0)
(22.823925 0.00054979364 0)
(22.982521 0.0016864669 0)
(23.180256 0.0028846666 0)
(23.372165 0.0032480873 0)
(23.465093 0.0033925361 0)
(23.426999 0.0033216739 0)
(23.260792 0.0031024765 0)
(22.92304 0.0027562912 0)
(22.305956 0.0023376948 0)
(21.254352 0.0018697409 0)
(19.664642 0.0013961632 0)
(17.629849 0.00097757865 0)
(15.348148 0.00065152024 0)
(13.007314 0.00041556388 0)
(10.749654 0.0002543238 0)
(8.6648683 0.00014976111 0)
(6.7904644 8.4861616e-05 0)
(5.1328015 4.5564803e-05 0)
(3.6833521 2.2545871e-05 0)
(2.4271857 9.6296595e-06 0)
(1.3470987 2.9099708e-06 0)
(0.42575645 2.070128e-07 0)
(21.860422 0.00037907697 0)
(22.389163 0.0018367649 0)
(22.496445 0.0017605266 0)
(22.470412 0.0017452297 0)
(22.452571 0.0016042525 0)
(22.468512 0.0011865586 0)
(22.548126 0.0003096889 0)
(22.686954 -0.0002819789 0)
(22.822832 1.4818739e-05 0)
(22.981035 0.0011073989 0)
(23.1782 0.0022641743 0)
(23.369366 0.002719953 0)
(23.461528 0.0029599505 0)
(23.422786 0.0029547539 0)
(23.256005 0.0027897066 0)
(22.917638 0.0024926705 0)
(22.299855 0.0021203586 0)
(21.247542 0.0016965701 0)
(19.657432 0.0012641203 0)
(17.622903 0.00088006286 0)
(15.342017 0.00058094633 0)
(13.002273 0.00036613076 0)
(10.745738 0.0002213353 0)
(8.6619613 0.00012905217 0)
(6.7883769 7.2808401e-05 0)
(5.1313405 3.976446e-05 0)
(3.6823564 2.0267591e-05 0)
(2.4265382 8.8122078e-06 0)
(1.3467275 2.6516323e-06 0)
(0.42562944 1.9639264e-07 0)
(21.860895 0.00030503435 0)
(22.389371 0.0016417769 0)
(22.496501 0.0014716662 0)
(22.470526 0.0013692323 0)
(22.45265 0.001145861 0)
(22.468315 0.00071460072 0)
(22.54749 -0.00011486468 0)
(22.686006 -0.00069604886 0)
(22.821655 -0.00042050592 0)
(22.979455 0.00063954516 0)
(23.176029 0.0017735411 0)
(23.366436 0.002314094 0)
(23.457839 0.0026275596 0)
(23.418458 0.0026696647 0)
(23.251115 0.0025458264 0)
(22.912154 0.0022881174 0)
(22.293709 0.0019544971 0)
(21.24074 0.0015686932 0)
(19.650282 0.0011718367 0)
(17.61605 0.00081673264 0)
(15.335995 0.0005378664 0)
(12.997343 0.00033686691 0)
(10.741932 0.00020161126 0)
(8.6591598 0.00011573838 0)
(6.7863881 6.3790974e-05 0)
(5.1299669 3.3205314e-05 0)
(3.6814318 1.6029956e-05 0)
(2.4259419 6.8531131e-06 0)
(1.3463858 2.209744e-06 0)
(0.42551157 2.0937614e-07 0)
(21.861259 0.00024646798 0)
(22.389475 0.0014883943 0)
(22.496461 0.0012423914 0)
(22.470537 0.0010665123 0)
(22.452634 0.00077229291 0)
(22.468066 0.00032047902 0)
(22.546832 -0.00046355483 0)
(22.685018 -0.0010327055 0)
(22.820413 -0.00077500569 0)
(22.977793 0.00027372488 0)
(23.17377 0.0014007907 0)
(23.363414 0.0020064245 0)
(23.454064 0.0023768042 0)
(23.414057 0.0024581532 0)
(23.246165 0.0023681632 0)
(22.906633 0.0021437409 0)
(22.287564 0.0018432477 0)
(21.233988 0.0014901138 0)
(19.643221 0.0011234355 0)
(17.6093 0.00079160646 0)
(15.330066 0.00052789219 0)
(12.992486 0.00033600763 0)
(10.738174 0.00020593401 0)
(8.6563858 0.000122387 0)
(6.7844113 7.0623233e-05 0)
(5.1285958 3.9567861e-05 0)
(3.6805046 2.0730182e-05 0)
(2.4253407 9.2159181e-06 0)
(1.3460396 2.7326104e-06 0)
(0.42539152 1.6364085e-07 0)
(21.861529 0.000200577 0)
(22.389489 0.0013688806 0)
(22.496336 0.0010618726 0)
(22.470459 0.00082496282 0)
(22.452532 0.00046834664 0)
(22.467768 -3.4447871e-06 0)
(22.546156 -0.00074403161 0)
(22.684004 -0.0013011253 0)
(22.819119 -0.0010586087 0)
(22.976077 -1.1516877e-05 0)
(23.171448 0.0011186467 0)
(23.360329 0.0017795411 0)
(23.450236 0.0021941135 0)
(23.409614 0.002306126 0)
(23.24119 0.002240592 0)
(22.901113 0.0020394424 0)
(22.281454 0.0017608548 0)
(21.227308 0.0014279129 0)
(19.636258 0.001078792 0)
(17.602642 0.00076079312 0)
(15.3242 0.00050648837 0)
(12.987654 0.00032089312 0)
(10.734407 0.00019504872 0)
(8.6535769 0.00011417292 0)
(6.7823858 6.4265987e-05 0)
(5.1271727 3.4230787e-05 0)
(3.6795305 1.6903076e-05 0)
(2.4247036 7.3326675e-06 0)
(1.3456711 2.3347283e-06 0)
(0.42526378 1.9267449e-07 0)
(21.861721 0.00016501168 0)
(22.389425 0.0012768357 0)
(22.496137 0.00092098533 0)
(22.4703 0.00063341145 0)
(22.452353 0.00022353502 0)
(22.467427 -0.00026688346 0)
(22.545473 -0.00096522056 0)
(22.682973 -0.0015092314 0)
(22.817782 -0.0012798222 0)
(22.974319 -0.00023190875 0)
(23.169081 0.00090467273 0)
(23.357203 0.0016149013 0)
(23.446375 0.0020651873 0)
(23.405153 0.0022000134 0)
(23.236215 0.0021507627 0)
(22.895616 0.0019635573 0)
(22.275402 0.0016969766 0)
(21.220727 0.0013745505 0)
(19.629431 0.0010348044 0)
(17.596142 0.00072568599 0)
(15.3185 0.00047979306 0)
(12.982984 0.00030167863 0)
(10.730789 0.00018211423 0)
(8.6508988 0.00010630266 0)
(6.7804688 6.0150266e-05 0)
(5.1258344 3.3008525e-05 0)
(3.6786181 1.6979454e-05 0)
(2.4241067 7.5074614e-06 0)
(1.3453244 2.3322096e-06 0)
(0.42514266 1.8320112e-07 0)
(21.861844 0.00013801101 0)
(22.389292 0.0012069959 0)
(22.495871 0.00081303696 0)
(22.470069 0.0004830238 0)
(22.452104 2.6757926e-05 0)
(22.467051 -0.00047990359 0)
(22.544787 -0.0011376258 0)
(22.681927 -0.0016701699 0)
(22.816411 -0.0014518404 0)
(22.972528 -0.00040261631 0)
(23.166681 0.0007373713 0)
(23.354046 0.001490353 0)
(23.442493 0.001967911 0)
(23.400683 0.0021175066 0)
(23.231246 0.0020769913 0)
(22.890148 0.0018964895 0)
(22.269408 0.0016355631 0)
(21.214245 0.0013187946 0)
(19.622745 0.00098528014 0)
(17.589817 0.00068342183 0)
(15.312997 0.00044532977 0)
(12.978521 0.00027454747 0)
(10.727377 0.00016128125 0)
(8.6484151 9.0877141e-05 0)
(6.7787266 4.9255319e-05 0)
(5.1246446 2.5338005e-05 0)
(3.6778225 1.2219732e-05 0)
(2.4235926 5.3074572e-06 0)
(1.345026 1.7848225e-06 0)
(0.42503733 1.9075866e-07 0)
(21.861907 0.00011805601 0)
(22.389099 0.0011548516 0)
(22.495547 0.00073214955 0)
(22.469772 0.00036632455 0)
(22.451791 -0.00013279492 0)
(22.466642 -0.00065184446 0)
(22.544101 -0.0012712001 0)
(22.680868 -0.0017951589 0)
(22.815004 -0.001585463 0)
(22.970706 -0.00053554788 0)
(23.164251 0.00060395382 0)
(23.35086 0.0013961324 0)
(23.438586 0.0018959443 0)
(23.396196 0.0020582025 0)
(23.22627 0.0020244419 0)
(22.88469 0.0018498966 0)
(22.263453 0.0015952155 0)
(21.207839 0.0012855566 0)
(19.616184 0.00095972015 0)
(17.583661 0.00066539811 0)
(15.307694 0.0004341293 0)
(12.974274 0.00026882066 0)
(10.724182 0.00015980748 0)
(8.6461343 9.2226265e-05 0)
(6.7771624 5.2060472e-05 0)
(5.123601 2.9103243e-05 0)
(3.6771387 1.5510569e-05 0)
(2.4231553 7.069515e-06 0)
(1.3447713 2.0915893e-06 0)
(0.42494603 1.2418381e-07 0)
(21.861916 0.00010387328 0)
(22.38885 0.0011166278 0)
(22.495167 0.00067243114 0)
(22.469413 0.00027725416 0)
(22.451419 -0.00026048694 0)
(22.466203 -0.00079015758 0)
(22.54341 -0.0013746395 0)
(22.679792 -0.0018935912 0)
(22.813561 -0.0016919398 0)
(22.968851 -0.00064103311 0)
(23.161787 0.00049799258 0)
(23.347638 0.0013252225 0)
(23.434646 0.0018422928 0)
(23.391679 0.0020141131 0)
(23.221272 0.0019838838 0)
(22.879223 0.0018119091 0)
(22.257508 0.0015604984 0)
(21.201472 0.0012544599 0)
(19.609688 0.0009322689 0)
(17.577587 0.00064192428 0)
(15.302479 0.00041450749 0)
(12.970113 0.00025278271 0)
(10.721065 0.00014669378 0)
(8.6439226 8.1503296e-05 0)
(6.7756571 4.3559996e-05 0)
(5.1226056 2.2146812e-05 0)
(3.676492 1.0640705e-05 0)
(2.4227442 4.671399e-06 0)
(1.3445321 1.5539989e-06 0)
(0.42485991 1.6091215e-07 0)
(21.861876 9.4455923e-05 0)
(22.388551 0.0010891583 0)
(22.494739 0.00062882706 0)
(22.468998 0.00021077193 0)
(22.450992 -0.00036037058 0)
(22.465734 -0.00090063524 0)
(22.542712 -0.0014540269 0)
(22.678694 -0.0019721798 0)
(22.81208 -0.0017803842 0)
(22.96696 -0.00072560487 0)
(23.159289 0.00041738968 0)
(23.344377 0.0012751724 0)
(23.430665 0.0018072616 0)
(23.387124 0.0019866262 0)
(23.21624 0.001958859 0)
(22.873731 0.0017879337 0)
(22.251555 0.0015389469 0)
(21.195121 0.0012359514 0)
(19.603238 0.00091725696 0)
(17.571582 0.00063042965 0)
(15.297348 0.00040642865 0)
(12.966042 0.00024773932 0)
(10.718038 0.00014421592 0)
(8.6417943 8.1032508e-05 0)
(6.7742244 4.4357272e-05 0)
(5.1216694 2.4035105e-05 0)
(3.6758898 1.2464491e-05 0)
(2.4223632 5.6083612e-06 0)
(1.3443098 1.7515045e-06 0)
(0.42477916 1.4459894e-07 0)
(21.861791 8.8848334e-05 0)
(22.388204 0.0010696566 0)
(22.494265 0.00059757577 0)
(22.468535 0.00016261266 0)
(22.450514 -0.00043798063 0)
(22.465237 -0.00098807619 0)
(22.542005 -0.0015142378 0)
(22.677574 -0.0020355352 0)
(22.810561 -0.0018539222 0)
(22.965031 -0.00079376631 0)
(23.156754 0.00035630585 0)
(23.341073 0.0012418279 0)
(23.42664 0.0017871048 0)
(23.382524 0.0019713781 0)
(23.211164 0.0019438647 0)
(22.868201 0.0017716375 0)
(22.245578 0.0015229176 0)
(21.188764 0.0012208145 0)
(19.5968 0.00090349316 0)
(17.565599 0.00061829935 0)
(15.292238 0.00039586025 0)
(12.961986 0.00023885519 0)
(10.715017 0.00013669293 0)
(8.6396637 7.4651918e-05 0)
(6.7727846 3.9098984e-05 0)
(5.1207246 1.9283157e-05 0)
(3.6752799 8.964744e-06 0)
(2.4219765 3.895551e-06 0)
(1.3440842 1.3985769e-06 0)
(0.42469732 1.8443893e-07 0)
(21.861666 8.618953e-05 0)
(22.387815 0.0010557948 0)
(22.493751 0.0005757657 0)
(22.468028 0.00012920538 0)
(22.44999 -0.00049722105 0)
(22.464709 -0.0010557024 0)
(22.541284 -0.0015590272 0)
(22.676428 -0.0020868831 0)
(22.809003 -0.0019125202 0)
(22.963063 -0.00084704337 0)
(23.154181 0.00031139888 0)
(23.337727 0.0012247853 0)
(23.422569 0.0017830948 0)
(23.377878 0.0019733708 0)
(23.206044 0.0019467166 0)
(22.862634 0.0017741342 0)
(22.239576 0.0015262964 0)
(21.182403 0.0012255273 0)
(19.590383 0.00091001292 0)
(17.559658 0.00062618771 0)
(15.287185 0.00040468708 0)
(12.957993 0.0002480169 0)
(10.712055 0.0001459413 0)
(8.6375849 8.3438097e-05 0)
(6.7713851 4.6807616e-05 0)
(5.1198081 2.6242311e-05 0)
(3.6746881 1.4105e-05 0)
(2.4216 6.4794924e-06 0)
(1.3438632 1.9225552e-06 0)
(0.42461665 1.1100401e-07 0)
(21.861501 8.5655902e-05 0)
(22.387383 0.0010457281 0)
(22.493199 0.00056036573 0)
(22.467482 0.00010743305 0)
(22.449422 -0.00053977211 0)
(22.464151 -0.0011059873 0)
(22.540543 -0.0015913168 0)
(22.675252 -0.0021291194 0)
(22.807407 -0.0019581875 0)
(22.961056 -0.00088853018 0)
(23.151569 0.00027607696 0)
(23.334337 0.001214006 0)
(23.418452 0.0017822604 0)
(23.373184 0.0019758292 0)
(23.200877 0.0019466453 0)
(22.857025 0.0017707049 0)
(22.233542 0.0015197283 0)
(21.176022 0.0012168076 0)
(19.583957 0.00090005059 0)
(17.553713 0.00061588515 0)
(15.282126 0.00039441937 0)
(12.953991 0.00023816631 0)
(10.709085 0.00013661549 0)
(8.6354979 7.4895518e-05 0)
(6.76998 3.9431998e-05 0)
(5.1188889 1.9586189e-05 0)
(3.6740959 9.1857004e-06 0)
(2.4212247 4.0232455e-06 0)
(1.3436439 1.4024458e-06 0)
(0.42453682 1.69938e-07 0)
(21.861299 8.6309741e-05 0)
(22.386911 0.001037971 0)
(22.492611 0.00054882343 0)
(22.466903 9.4813332e-05 0)
(22.448814 -0.00056759311 0)
(22.463561 -0.0011415436 0)
(22.539777 -0.0016140089 0)
(22.674043 -0.0021643978 0)
(22.805772 -0.0019925386 0)
(22.959011 -0.00091976826 0)
(23.148915 0.00024963185 0)
(23.330901 0.0012101912 0)
(23.414285 0.0017870233 0)
(23.368437 0.0019836985 0)
(23.195655 0.0019521509 0)
(22.851363 0.0017729242 0)
(22.227463 0.0015189449 0)
(21.169613 0.0012141637 0)
(19.577525 0.00089678077 0)
(17.547781 0.00061289644 0)
(15.277097 0.00039229735 0)
(12.950029 0.00023710362 0)
(10.70616 0.00013676567 0)
(8.6334558 7.6149284e-05 0)
(6.7686147 4.1347085e-05 0)
(5.1180018 2.226977e-05 0)
(3.6735273 1.1513307e-05 0)
(2.4208646 5.1870125e-06 0)
(1.3434326 1.6457249e-06 0)
(0.42445945 1.432985e-07 0)
(21.861059 8.7924046e-05 0)
(22.386399 0.0010316786 0)
(22.491991 0.00053975185 0)
(22.466296 8.9221032e-05 0)
(22.448169 -0.00058330964 0)
(22.462937 -0.0011648236 0)
(22.538981 -0.0016296677 0)
(22.672796 -0.0021945611 0)
(22.804097 -0.0020187481 0)
(22.956927 -0.00094449384 0)
(23.14622 0.00023048249 0)
(23.327419 0.0012127963 0)
(23.410066 0.001795766 0)
(23.363633 0.0019933736 0)
(23.190372 0.0019583202 0)
(22.845641 0.00177459 0)
(22.221331 0.0015159184 0)
(21.163164 0.0012076082 0)
(19.571069 0.00088809847 0)
(17.54184 0.00060351659 0)
(15.272064 0.00038301205 0)
(12.946063 0.00022855759 0)
(10.703227 0.00012910432 0)
(8.6314038 6.9537297e-05 0)
(6.7672393 3.5901831e-05 0)
(5.117106 1.7429547e-05 0)
(3.6729521 7.9984707e-06 0)
(2.4205004 3.4714106e-06 0)
(1.3432193 1.2836988e-06 0)
(0.42438143 1.8229575e-07 0)
(21.860783 9.0869435e-05 0)
(22.385848 0.0010265377 0)
(22.491337 0.00053256158 0)
(22.465665 8.8680836e-05 0)
(22.44749 -0.00059046479 0)
(22.462279 -0.0011782279 0)
(22.538149 -0.0016403698 0)
(22.671509 -0.0022211417 0)
(22.802383 -0.0020387012 0)
(22.954803 -0.0009636934 0)
(23.143481 0.00021826299 0)
(23.323888 0.0012217711 0)
(23.405794 0.0018121801 0)
(23.358772 0.0020130303 0)
(23.185031 0.0019764127 0)
(22.839862 0.0017902653 0)
(22.21515 0.0015295539 0)
(21.156685 0.0012197322 0)
(19.56461 0.00089981185 0)
(17.535923 0.00061514105 0)
(15.267079 0.00039454184 0)
(12.94216 0.00023960188 0)
(10.700363 0.00013974424 0)
(8.6294178 7.9357538e-05 0)
(6.7659205 4.4352224e-05 0)
(5.1162549 2.4955057e-05 0)
(3.6724093 1.3530699e-05 0)
(2.420157 6.26764e-06 0)
(1.3430171 1.846832e-06 0)
(0.42430681 9.6613193e-08 0)
(21.860471 9.485894e-05 0)
(22.385258 0.0010228277 0)
(22.490652 0.00052765144 0)
(22.465011 9.1242582e-05 0)
(22.446781 -0.00059272159 0)
(22.461585 -0.0011843078 0)
(22.537278 -0.0016482821 0)
(22.67018 -0.002246012 0)
(22.800628 -0.0020546405 0)
(22.952637 -0.00098055119 0)
(23.140696 0.00020835451 0)
(23.320307 0.0012306581 0)
(23.401465 0.001826643 0)
(23.35385 0.0020284378 0)
(23.179625 0.0019875393 0)
(22.834018 0.0017961536 0)
(22.208909 0.0015301884 0)
(21.150154 0.0012159147 0)
(19.55811 0.00089284253 0)
(17.529972 0.00060662701 0)
(15.262063 0.00038522242 0)
(12.938227 0.00023023623 0)
(10.697472 0.00013059676 0)
(8.627408 7.0780806e-05 0)
(6.7645834 3.683782e-05 0)
(5.1153911 1.8062506e-05 0)
(3.6718587 8.3903853e-06 0)
(2.41981 3.6896119e-06 0)
(1.3428139 1.3072561e-06 0)
(0.42423227 1.6489399e-07 0)
(21.860123 9.9338064e-05 0)
(22.38463 0.001020835 0)
(22.489934 0.00052558585 0)
(22.464334 9.5352847e-05 0)
(22.446042 -0.00059238157 0)
(22.460855 -0.0011846159 0)
(22.536362 -0.0016547909 0)
(22.668804 -0.0022702227 0)
(22.798832 -0.002067278 0)
(22.950429 -0.00099492836 0)
(23.137863 0.00020210142 0)
(23.316671 0.0012424274 0)
(23.397075 0.0018432352 0)
(23.348859 0.0020458106 0)
(23.174145 0.0020016809 0)
(22.828097 0.0018058929 0)
(22.202594 0.0015355821 0)
(21.143561 0.0012176713 0)
(19.55157 0.00089239449 0)
(17.524006 0.000605463 0)
(15.257053 0.00038435332 0)
(12.934318 0.00023000124 0)
(10.694612 0.00013130561 0)
(8.6254324 7.2470642e-05 0)
(6.7632778 3.9132205e-05 0)
(5.1145528 2.1133103e-05 0)
(3.6713268 1.1010196e-05 0)
(2.4194748 4.9882349e-06 0)
(1.3426169 1.5751608e-06 0)
(0.42415955 1.2998143e-07 0)
(21.859741 0.00010405129 0)
(22.383965 0.0010205038 0)
(22.489187 0.00052606952 0)
(22.463636 0.00010009907 0)
(22.445277 -0.00059039739 0)
(22.460088 -0.0011802526 0)
(22.535399 -0.0016608054 0)
(22.66738 -0.0022949339 0)
(22.796994 -0.0020790459 0)
(22.948177 -0.0010083204 0)
(23.134981 0.00019849896 0)
(23.312979 0.001255078 0)
(23.392622 0.00185971 0)
(23.343796 0.0020617552 0)
(23.168586 0.0020133765 0)
(22.822094 0.0018121276 0)
(22.196198 0.0015357911 0)
(21.136897 0.001212471 0)
(19.544974 0.00088322289 0)
(17.518 0.00059439705 0)
(15.252015 0.00037287718 0)
(12.930385 0.00021917314 0)
(10.691732 0.0001214911 0)
(8.6234379 6.4037029e-05 0)
(6.7619556 3.2285846e-05 0)
(5.1137011 1.5158784e-05 0)
(3.6707849 6.7157565e-06 0)
(2.4191333 2.8974494e-06 0)
(1.3424164 1.1334152e-06 0)
(0.42408575 1.8214461e-07 0)
(21.859326 0.00010871747 0)
(22.383265 0.0010217849 0)
(22.48841 0.00052845825 0)
(22.462918 0.00010519942 0)
(22.444488 -0.00058712471 0)
(22.459285 -0.0011725993 0)
(22.534391 -0.0016666973 0)
(22.665909 -0.0023193361 0)
(22.795114 -0.0020916801 0)
(22.945883 -0.0010219369 0)
(23.132051 0.00019944894 0)
(23.309234 0.0012722952 0)
(23.388108 0.0018819748 0)
(23.338666 0.0020849781 0)
(23.162955 0.0020346956 0)
(22.816015 0.0018303598 0)
(22.18973 0.0015509141 0)
(21.130174 0.0012246777 0)
(19.538347 0.00089368289 0)
(17.511998 0.00060374467 0)
(15.247016 0.00038179707 0)
(12.926519 0.0002276309 0)
(10.688934 0.00012981818 0)
(8.6215288 7.2018447e-05 0)
(6.7607117 3.9464036e-05 0)
(5.1129148 2.2013484e-05 0)
(3.6702927 1.1959177e-05 0)
(2.4188251 5.5795153e-06 0)
(1.3422345 1.6531575e-06 0)
(0.42401778 8.8314306e-08 0)
(21.858878 0.00011317596 0)
(22.382531 0.00102471 0)
(22.487605 0.00053239097 0)
(22.462178 0.00011065165 0)
(22.443676 -0.00058306605 0)
(22.458448 -0.0011629602 0)
(22.533335 -0.001673639 0)
(22.664391 -0.0023432777 0)
(22.793195 -0.0021043532 0)
(22.943545 -0.0010356473 0)
(23.129073 0.00020170946 0)
(23.305434 0.0012871917 0)
(23.383531 0.0019000835 0)
(23.333467 0.0021017134 0)
(23.157246 0.0020478379 0)
(22.809855 0.0018390538 0)
(22.18318 0.0015546027 0)
(21.123374 0.0012233193 0)
(19.53165 0.00088796563 0)
(17.505937 0.00059551615 0)
(15.24197 0.00037214761 0)
(12.922619 0.00021764816 0)
(10.686116 0.00011987276 0)
(8.6196133 6.2635465e-05 0)
(6.7594733 3.1284725e-05 0)
(5.1121416 1.4620284e-05 0)
(3.6698166 6.5066928e-06 0)
(2.4185321 2.8536436e-06 0)
(1.3420633 1.0742356e-06 0)
(0.42395382 1.5992211e-07 0)
(21.858396 0.00011749992 0)
(22.381759 0.0010291432 0)
(22.486767 0.00053781177 0)
(22.461413 0.00011649332 0)
(22.442838 -0.00057813782 0)
(22.457574 -0.0011523198 0)
(22.532229 -0.0016829124 0)
(22.662824 -0.0023673082 0)
(22.791233 -0.0021146021 0)
(22.94116 -0.0010473162 0)
(23.126042 0.0002053903 0)
(23.301573 0.0013041624 0)
(23.378886 0.0019218384 0)
(23.328188 0.0021235877 0)
(23.151451 0.0020678704 0)
(22.803601 0.001856426 0)
(22.176534 0.0015690196 0)
(21.116482 0.0012342868 0)
(19.524877 0.00089561277 0)
(17.499822 0.00060096885 0)
(15.236894 0.0003764986 0)
(12.918709 0.00022140124 0)
(10.683303 0.0001234655 0)
(8.6177115 6.6237552e-05 0)
(6.7582513 3.475456e-05 0)
(5.1113836 1.8365047e-05 0)
(3.6693524 9.5001834e-06 0)
(2.4182467 4.3373458e-06 0)
(1.341896 1.3852239e-06 0)
(0.42389101 1.2036071e-07 0)
(21.857879 0.00012195203 0)
(22.380951 0.0010347023 0)
(22.485898 0.00054442201 0)
(22.46062 0.00012302438 0)
(22.441976 -0.00057185633 0)
(22.456664 -0.0011412413 0)
(22.531074 -0.0016946843 0)
(22.661208 -0.002391684 0)
(22.789228 -0.002123985 0)
(22.93873 -0.0010589646 0)
(23.122959 0.00020975497 0)
(23.297654 0.0013231203 0)
(23.374172 0.0019447304 0)
(23.322833 0.0021451493 0)
(23.14557 0.0020859608 0)
(22.797254 0.0018702996 0)
(22.169791 0.0015781026 0)
(21.109494 0.0012386263 0)
(19.518012 0.00089564492 0)
(17.493623 0.00059792329 0)
(15.23174 0.00037158465 0)
(12.914728 0.00021579873 0)
(10.680426 0.00011760917 0)
(8.6157531 6.0593845e-05 0)
(6.7569828 2.9751341e-05 0)
(5.11059 1.3666276e-05 0)
(3.6688629 5.9866746e-06 0)
(2.4179452 2.5902995e-06 0)
(1.3417199 1.0211334e-06 0)
(0.42382544 1.6618073e-07 0)
(21.857331 0.00012652475 0)
(22.380108 0.0010413368 0)
(22.484997 0.0005518843 0)
(22.4598 0.0001302937 0)
(22.441089 -0.00056428409 0)
(22.45572 -0.0011300305 0)
(22.529875 -0.0017080414 0)
(22.659546 -0.0024153017 0)
(22.787182 -0.0021318993 0)
(22.936257 -0.0010681825 0)
(23.119828 0.00021727442 0)
(23.29368 0.001344485 0)
(23.369398 0.0019708082 0)
(23.31741 0.0021732636 0)
(23.139615 0.0021138961 0)
(22.790829 0.0018973872 0)
(22.16297 0.0016046879 0)
(21.102434 0.0012642541 0)
(19.511091 0.00091993869 0)
(17.487392 0.00062008057 0)
(15.226585 0.000391637 0)
(12.910771 0.00023343278 0)
(10.677589 0.00013323104 0)
(8.6138436 7.4039955e-05 0)
(6.755762 4.0747899e-05 0)
(5.1098374 2.305786e-05 0)
(3.6684052 1.278053e-05 0)
(2.4176652 6.0360615e-06 0)
(1.3415559 1.7177568e-06 0)
(0.42376365 5.3287714e-08 0)
(21.85675 0.00013112114 0)
(22.37923 0.0010489892 0)
(22.484066 0.00056020808 0)
(22.45895 0.00013858308 0)
(22.440177 -0.00055564805 0)
(22.454744 -0.0011201263 0)
(22.528633 -0.0017232235 0)
(22.657839 -0.0024382994 0)
(22.785097 -0.0021394959 0)
(22.933741 -0.0010773896 0)
(23.11665 0.00022312889 0)
(23.289653 0.0013619342 0)
(23.364562 0.0019907599 0)
(23.311918 0.0021923348 0)
(23.133583 0.0021296423 0)
(22.784322 0.0019095177 0)
(22.156061 0.0016130411 0)
(21.095281 0.0012692241 0)
(19.504072 0.0009216592 0)
(17.481059 0.0006187501 0)
(15.221324 0.00038755798 0)
(12.906713 0.00022755668 0)
(10.674664 0.00012601573 0)
(8.6118609 6.6166121e-05 0)
(6.7544865 3.3168861e-05 0)
(5.1090475 1.5576362e-05 0)
(3.6679244 6.9799778e-06 0)
(2.4173731 3.0743811e-06 0)
(1.3413868 1.1144535e-06 0)
(0.42370084 1.4822174e-07 0)
(21.856138 0.00013585486 0)
(22.378317 0.0010573344 0)
(22.483103 0.00056925971 0)
(22.458071 0.00014812573 0)
(22.43924 -0.00054573836 0)
(22.453734 -0.0011116823 0)
(22.527347 -0.0017396807 0)
(22.656088 -0.0024601447 0)
(22.78297 -0.0021466686 0)
(22.931182 -0.0010859053 0)
(23.113421 0.00023062815 0)
(23.285568 0.0013827227 0)
(23.359658 0.0020143436 0)
(23.306349 0.0022155341 0)
(23.127466 0.002150505 0)
(22.777722 0.0019278925 0)
(22.149055 0.001629036 0)
(21.088031 0.0012830772 0)
(19.496961 0.00093398531 0)
(17.474645 0.00062953566 0)
(15.215999 0.00039687316 0)
(12.902607 0.00023550212 0)
(10.671706 0.00013301028 0)
(8.6098584 7.247054e-05 0)
(6.7531992 3.866604e-05 0)
(5.1082502 2.0951966e-05 0)
(3.6674387 1.1080649e-05 0)
(2.4170772 5.0582772e-06 0)
(1.3412153 1.5330372e-06 0)
(0.42363711 9.2314443e-08 0)
(21.855494 0.00014064683 0)
(22.377369 0.0010663308 0)
(22.482108 0.00057898623 0)
(22.457161 0.00015867398 0)
(22.438277 -0.00053471069 0)
(22.452693 -0.0011042606 0)
(22.526019 -0.0017561113 0)
(22.654293 -0.0024800901 0)
(22.780803 -0.0021527234 0)
(22.928578 -0.0010923282 0)
(23.110143 0.00024004025 0)