/*--------------------------------*- C++ -*----------------------------------*\
| =========                 |                                                 |
| \\      /  F ield         | OpenFOAM: The Open Source CFD Toolbox           |
|  \\    /   O peration     | Version:  v2012                                 |
|   \\  /    A nd           | Website:  www.openfoam.com                      |
|    \\/     M anipulation  |                                                 |
\*---------------------------------------------------------------------------*/
FoamFile
{
    version     2.0;
    format      ascii;
    class       volScalarField;
    location    "700";
    object      alphat;
}
// * * * * * * * * * * * * * * * * * * * * * * * * * * * * * * * * * * * * * //

dimensions      [1 -1 -1 0 0 0 0];


internalField   nonuniform List<scalar> 
24000
(
0.000634611
0.00022857355
0.00015367578
0.00016954685
0.00016688011
0.0001415896
0.00011324409
8.7648826e-05
7.0812924e-05
5.141061e-05
2.7125182e-05
1.5688279e-05
1.2597835e-05
9.3040442e-06
5.4818016e-06
3.2682507e-06
1.9035914e-06
9.7497375e-07
3.9510146e-07
1.382658e-07
4.3133237e-08
1.2270174e-08
3.2000034e-09
7.5498755e-10
1.5595549e-10
2.6638868e-11
3.464158e-12
3.7868567e-13
1.4341973e-13
1.5591209e-13
0.00063618066
0.00022587377
0.00015260707
0.00016909731
0.00016650556
0.00014144243
0.00011320559
8.760257e-05
7.0721092e-05
5.1318093e-05
2.706961e-05
1.5652694e-05
1.2565715e-05
9.2623963e-06
5.4571911e-06
3.2530084e-06
1.8937663e-06
9.6952713e-07
3.9265251e-07
1.3735161e-07
4.283764e-08
1.2184548e-08
3.1775005e-09
7.4966883e-10
1.5485779e-10
2.6451309e-11
3.4392108e-12
3.7525854e-13
1.4153762e-13
1.5380614e-13
0.00063778718
0.00022786207
0.00015289427
0.00016869626
0.00016618457
0.00014105351
0.00011283896
8.7256339e-05
7.0419783e-05
5.1211137e-05
2.7005546e-05
1.5613302e-05
1.2531353e-05
9.2255289e-06
5.4340845e-06
3.2386875e-06
1.8845763e-06
9.6316251e-07
3.8966865e-07
1.3620854e-07
4.2464184e-08
1.2076329e-08
3.1491538e-09
7.4299148e-10
1.5348393e-10
2.6218418e-11
3.4100743e-12
3.7325147e-13
1.4173611e-13
1.5411255e-13
0.00063942002
0.00022858824
0.00015269742
0.00016830138
0.00016592688
0.0001408011
0.00011260406
8.7046624e-05
7.0216825e-05
5.1100099e-05
2.6939699e-05
1.5574012e-05
1.2497649e-05
9.1857335e-06
5.4106401e-06
3.2249714e-06
1.8762399e-06
9.5809815e-07
3.8744654e-07
1.3539625e-07
4.2206083e-08
1.2002613e-08
3.1299786e-09
7.3848952e-10
1.5255897e-10
2.6061413e-11
3.3900234e-12
3.7138281e-13
1.4128647e-13
1.5364666e-13
0.00064107039
0.00022923842
0.00015244411
0.00016790805
0.00016566609
0.00014055591
0.00011237906
8.6842722e-05
7.0014631e-05
5.0985844e-05
2.6871447e-05
1.5533795e-05
1.2463615e-05
9.1470857e-06
5.3876283e-06
3.2113186e-06
1.8677908e-06
9.527596e-07
3.8505503e-07
1.3450722e-07
4.1920367e-08
1.1920451e-08
3.1085252e-09
7.3344213e-10
1.5152076e-10
2.5885138e-11
3.3675948e-12
3.6939916e-13
1.4091279e-13
1.532754e-13
0.00064273499
0.00022967519
0.0001521216
0.00016751609
0.00016540593
0.00014032063
0.00011216633
8.6648326e-05
6.9819421e-05
5.0869546e-05
2.6801721e-05
1.5493048e-05
1.2429469e-05
9.1083334e-06
5.3645008e-06
3.1975682e-06
1.8592854e-06
9.4741475e-07
3.8266645e-07
1.3362092e-07
4.1635832e-08
1.1838662e-08
3.0871698e-09
7.2841698e-10
1.5048689e-10
2.5709537e-11
3.3452212e-12
3.6739048e-13
1.4050441e-13
1.5286382e-13
0.00064441118
0.00022999082
0.00015177083
0.00016712519
0.00016514536
0.00014008884
0.00011195826
8.6457217e-05
6.9627323e-05
5.0751916e-05
2.6730981e-05
1.5451931e-05
1.2395252e-05
9.0696508e-06
5.3413551e-06
3.1837711e-06
1.8507415e-06
9.420383e-07
3.8026244e-07
1.3272853e-07
4.1349239e-08
1.1756256e-08
3.0656481e-09
7.2335181e-10
1.4944463e-10
2.5532489e-11
3.3226557e-12
3.6535766e-13
1.4008449e-13
1.5243954e-13
0.00064609733
0.00023022198
0.00015140446
0.00016673518
0.00016488469
0.00013985895
0.00011175248
8.6268078e-05
6.943948e-05
5.0633433e-05
2.6659586e-05
1.5410604e-05
1.2361023e-05
9.0310381e-06
5.3182165e-06
3.1699581e-06
1.8421852e-06
9.3665501e-07
3.7785604e-07
1.3183541e-07
4.1062416e-08
1.1673778e-08
3.044104e-09
7.1828059e-10
1.4840097e-10
2.5355179e-11
3.3000493e-12
3.6331495e-13
1.3965651e-13
1.52006e-13
0.00064779233
0.00023039824
0.0001510304
0.00016634604
0.00016462402
0.00013963013
0.00011154789
8.6080119e-05
6.9253553e-05
5.0514403e-05
2.6587785e-05
1.5369192e-05
1.2326818e-05
8.9925299e-06
5.2951167e-06
3.1561552e-06
1.833634e-06
9.3127693e-07
3.7545316e-07
1.3094388e-07
4.077614e-08
1.1591457e-08
3.0226003e-09
7.1321848e-10
1.4735912e-10
2.517816e-11
3.2774753e-12
3.6127025e-13
1.392233e-13
1.5156625e-13
0.00064949543
0.00023053844
0.00015065244
0.00016595767
0.00016436358
0.00013940208
0.00011134401
8.589294e-05
6.9068611e-05
5.039504e-05
2.6515753e-05
1.5327815e-05
1.229266e-05
8.9541463e-06
5.2720783e-06
3.142378e-06
1.8250988e-06
9.2591218e-07
3.7305758e-07
1.3005535e-07
4.0490861e-08
1.1509422e-08
3.0011695e-09
7.081731e-10
1.4632062e-10
2.5001697e-11
3.254968e-12
3.5922791e-13
1.3878695e-13
1.5112256e-13
0.00065120609
0.00023065602
0.00015027265
0.00016557008
0.00016410334
0.00013917452
0.00011114057
8.5706376e-05
6.8884339e-05
5.0275498e-05
2.6443612e-05
1.528664e-05
1.2258571e-05
8.9159095e-06
5.2491203e-06
3.1286387e-06
1.8165884e-06
9.2056702e-07
3.7067233e-07
1.2917107e-07
4.020702e-08
1.1427807e-08
2.9798489e-09
7.0315355e-10
1.4528741e-10
2.482613e-11
3.2325723e-12
3.5719262e-13
1.3834901e-13
1.5067657e-13
0.0006529239
0.00023075943
0.00014989592
0.00016518324
0.00016384327
0.00013894735
0.00011093726
8.5520279e-05
6.8700587e-05
5.0155887e-05
2.6371434e-05
1.5245526e-05
1.2224561e-05
8.8778297e-06
5.2262484e-06
3.1149449e-06
1.8081073e-06
9.1524501e-07
3.6829903e-07
1.2829164e-07
3.992481e-08
1.1346668e-08
2.9586522e-09
6.9816299e-10
1.4426014e-10
2.4651564e-11
3.2103016e-12
3.551659e-13
1.3791007e-13
1.5022888e-13
0.00065464847
0.00023085257
0.0001495182
0.00016479714
0.0001635835
0.00013872044
0.0001107341
8.5334554e-05
6.8517254e-05
5.0036289e-05
2.6299282e-05
1.5204495e-05
1.2190636e-05
8.8399128e-06
5.2034697e-06
3.1013028e-06
1.7996599e-06
9.0994894e-07
3.6593911e-07
1.2741766e-07
3.9644427e-08
1.1266064e-08
2.9375962e-09
6.9320558e-10
1.4323969e-10
2.4478157e-11
3.1881776e-12
3.5315048e-13
1.3747144e-13
1.4978092e-13
0.00065637948
0.00023093682
0.00014913986
0.0001644118
0.00016332406
0.00013849387
0.00011053108
8.5149221e-05
6.833427e-05
4.9916763e-05
2.6227205e-05
1.5163581e-05
1.2156802e-05
8.8021602e-06
5.1807905e-06
3.0877145e-06
1.7912478e-06
9.0468012e-07
3.6359317e-07
1.2654928e-07
3.936591e-08
1.1186004e-08
2.9166823e-09
6.8828151e-10
1.4222607e-10
2.430591e-11
3.1662004e-12
3.5114661e-13
1.370334e-13
1.4933296e-13
0.00065811657
0.00023101361
0.00014876136
0.0001640272
0.00016306505
0.00013826757
0.00011032818
8.4964261e-05
6.8151647e-05
4.9797358e-05
2.6155242e-05
1.5122825e-05
1.2123066e-05
8.7645803e-06
5.1582166e-06
3.0741838e-06
1.7828739e-06
8.994404e-07
3.6126215e-07
1.2568691e-07
3.9089411e-08
1.1106537e-08
2.8959245e-09
6.8339429e-10
1.4122004e-10
2.4134957e-11
3.1443881e-12
3.4915619e-13
1.3659658e-13
1.4888562e-13
0.00065985939
0.00023108518
0.0001483829
0.00016364338
0.00016280638
0.00013804142
0.00011012525
8.4779612e-05
6.7969429e-05
4.9678108e-05
2.6083423e-05
1.5082271e-05
1.2089432e-05
8.7271738e-06
5.1357448e-06
3.0607121e-06
1.7745387e-06
8.9423039e-07
3.5894616e-07
1.2483059e-07
3.8814934e-08
1.102766e-08
2.8753216e-09
6.7854352e-10
1.4022151e-10
2.3965277e-11
3.1227375e-12
3.4717893e-13
1.3616086e-13
1.4843877e-13
0.00066160758
0.00023115273
0.00014800469
0.00016326033
0.00016254808
0.00013781549
0.00010992235
8.4595241e-05
6.7787604e-05
4.9559045e-05
2.6011766e-05
1.5041932e-05
1.2055901e-05
8.6899395e-06
5.113378e-06
3.0473016e-06
1.7662436e-06
8.8905095e-07
3.5664565e-07
1.2398049e-07
3.854255e-08
1.0949397e-08
2.8548803e-09
6.7373093e-10
1.3923087e-10
2.379694e-11
3.1012586e-12
3.4521619e-13
1.3572697e-13
1.4799314e-13
0.00066336074
0.00023121549
0.00014762683
0.00016287808
0.00016229035
0.00013758976
0.0001097196
8.4411255e-05
6.7606168e-05
4.944019e-05
2.5940277e-05
1.5001729e-05
1.2022469e-05
8.6528763e-06
5.0911193e-06
3.0339507e-06
1.7579879e-06
8.8390156e-07
3.5436034e-07
1.2313647e-07
3.8272189e-08
1.0871723e-08
2.8345934e-09
6.6895467e-10
1.382477e-10
2.3629875e-11
3.0799418e-12
3.432671e-13
1.3529471e-13
1.4754851e-13
0.00066511846
0.00023127238
0.00014724941
0.00016249663
0.00016203318
0.00013736425
0.00010951697
8.42277e-05
6.7425182e-05
4.9321561e-05
2.5868971e-05
1.4961681e-05
1.1989139e-05
8.6159878e-06
5.0689676e-06
3.0206609e-06
1.749773e-06
8.7878301e-07
3.5209073e-07
1.2229876e-07
3.8003937e-08
1.0794669e-08
2.8144698e-09
6.6421701e-10
1.3727251e-10
2.3464174e-11
3.0587994e-12
3.4133296e-13
1.3486446e-13
1.4710525e-13
0.00066688029
0.00023132389
0.00014687257
0.00016211603
0.00016177658
0.00013713876
0.0001093144
8.4044474e-05
6.724464e-05
4.9203173e-05
2.5797867e-05
1.4921811e-05
1.1955916e-05
8.5792736e-06
5.0469196e-06
3.0074321e-06
1.7415982e-06
8.7369513e-07
3.4983663e-07
1.2146723e-07
3.7737747e-08
1.0718218e-08
2.7945045e-09
6.5951669e-10
1.3630502e-10
2.3299785e-11
3.037825e-12
3.3941305e-13
1.3443601e-13
1.4666307e-13
0.00066864578
0.00023137152
0.00014649653
0.00016173627
0.00016152045
0.00013691321
0.00010911195
8.386158e-05
6.7064495e-05
4.9085043e-05
2.5726977e-05
1.4882138e-05
1.1922798e-05
8.5427298e-06
5.0249777e-06
2.9942651e-06
1.7334642e-06
8.6863844e-07
3.4759823e-07
1.2064201e-07
3.7473672e-08
1.0642388e-08
2.7747032e-09
6.548552e-10
1.3534555e-10
2.3136771e-11
3.0170274e-12
3.3750863e-13
1.3400999e-13
1.4622265e-13
0.00067041443
0.00023141556
0.00014612153
0.0001613574
0.00016126487
0.00013668766
0.00010890968
8.3679072e-05
6.6884726e-05
4.8967184e-05
2.5656307e-05
1.4842663e-05
1.1889783e-05
8.5063561e-06
5.0031447e-06
2.9811579e-06
1.7253697e-06
8.6361191e-07
3.4537499e-07
1.1982284e-07
3.7211616e-08
1.0567146e-08
2.7550565e-09
6.5023014e-10
1.3439359e-10
2.2975039e-11
2.9963944e-12
3.3561858e-13
1.3358617e-13
1.4578367e-13
0.00067218575
0.00023145441
0.00014574775
0.00016097945
0.00016100957
0.00013646201
0.00010870758
8.3496946e-05
6.670538e-05
4.8849606e-05
2.558586e-05
1.480336e-05
1.1856871e-05
8.4701535e-06
4.9814164e-06
2.9681121e-06
1.7173159e-06
8.586162e-07
3.431674e-07
1.1900994e-07
3.6951664e-08
1.0492523e-08
2.7355726e-09
6.4564364e-10
1.3344963e-10
2.2814673e-11
2.9759373e-12
3.3374402e-13
1.3316481e-13
1.4534641e-13
0.00067395918
0.0002314868
0.00014537532
0.00016060243
0.00016075417
0.00013623658
0.00010850577
8.3315176e-05
6.652647e-05
4.8732323e-05
2.5515645e-05
1.476422e-05
1.1824063e-05
8.4341221e-06
4.9597907e-06
2.9551268e-06
1.7093019e-06
8.5365076e-07
3.4097505e-07
1.1820312e-07
3.6693733e-08
1.0418489e-08
2.7162439e-09
6.4109378e-10
1.3251322e-10
2.2655599e-11
2.9556461e-12
3.3188376e-13
1.3274541e-13
1.4491025e-13
0.00067573417
0.0002315137
0.00014500437
0.0001602264
0.00016049872
0.00013601136
0.00010830433
8.3133792e-05
6.6347951e-05
4.8615344e-05
2.5445669e-05
1.4725258e-05
1.1791358e-05
8.398257e-06
4.9382707e-06
2.9422029e-06
1.7013283e-06
8.487159e-07
3.3879808e-07
1.1740244e-07
3.6437853e-08
1.0345059e-08
2.6970742e-09
6.3658158e-10
1.3158462e-10
2.2497863e-11
2.9355275e-12
3.300389e-13
1.3232863e-13
1.4447589e-13
0.00067751013
0.00023153685
0.00014463513
0.00015985139
0.00016024311
0.00013578635
0.00010810324
8.2952787e-05
6.6169828e-05
4.8498676e-05
2.5375939e-05
1.468648e-05
1.1758756e-05
8.3625581e-06
4.9168572e-06
2.9293383e-06
1.6933941e-06
8.4381087e-07
3.3663593e-07
1.1660765e-07
3.6183929e-08
1.0272199e-08
2.6780541e-09
6.3210467e-10
1.3066331e-10
2.2341374e-11
2.9155694e-12
3.2820843e-13
1.3191435e-13
1.440432e-13
0.00067928648
0.00023155645
0.00014426784
0.00015947745
0.00015998734
0.00013556156
0.00010790241
8.2772161e-05
6.5992155e-05
4.8382329e-05
2.5306459e-05
1.4647888e-05
1.1726255e-05
8.3270239e-06
4.8955445e-06
2.9165341e-06
1.6855005e-06
8.3893656e-07
3.3448928e-07
1.1581905e-07
3.5932078e-08
1.0199946e-08
2.6591944e-09
6.2766578e-10
1.2974987e-10
2.2186235e-11
2.895786e-12
3.263937e-13
1.3150291e-13
1.4361248e-13
0.0006810626
0.00023157111
0.00014390269
0.00015910461
0.00015973157
0.00013533699
0.00010770199
8.2592004e-05
6.5814954e-05
4.826631e-05
2.5237229e-05
1.4609466e-05
1.1693854e-05
8.2916539e-06
4.8743309e-06
2.9037887e-06
1.6776456e-06
8.3409195e-07
3.3235756e-07
1.1503639e-07
3.5682205e-08
1.0128271e-08
2.6404868e-09
6.2326279e-10
1.2884384e-10
2.2032368e-11
2.8761666e-12
3.2459334e-13
1.3109362e-13
1.4318294e-13
0.00068283786
0.00023157995
0.00014353984
0.00015873292
0.00015947582
0.00013511277
0.00010750206
8.2412342e-05
6.5638197e-05
4.8150624e-05
2.5168249e-05
1.4571205e-05
1.1661552e-05
8.2564444e-06
4.8532202e-06
2.8911015e-06
1.6698296e-06
8.2927683e-07
3.3024072e-07
1.1425967e-07
3.5434321e-08
1.0057181e-08
2.6219335e-09
6.1889644e-10
1.2794543e-10
2.1879808e-11
2.8567166e-12
3.2280829e-13
1.3068707e-13
1.4275519e-13
0.00068461158
0.00023158411
0.0001431795
0.00015836244
0.00015922012
0.00013488878
0.00010730246
8.2233088e-05
6.5461883e-05
4.8035276e-05
2.5099527e-05
1.4533111e-05
1.1629347e-05
8.2213957e-06
4.8322097e-06
2.8784705e-06
1.6620506e-06
8.2449016e-07
3.2813807e-07
1.1348857e-07
3.5188301e-08
9.986634e-09
2.603523e-09
6.1456382e-10
1.2705399e-10
2.1728442e-11
2.8374215e-12
3.2103727e-13
1.3028305e-13
1.4232898e-13
0.00068638313
0.00023158532
0.00014282196
0.00015799321
0.00015896432
0.000134665
0.0001071032
8.2054207e-05
6.5286006e-05
4.7920275e-05
2.5031066e-05
1.4495188e-05
1.1597237e-05
8.1865058e-06
4.8112957e-06
2.8658971e-06
1.65431e-06
8.1973275e-07
3.2605012e-07
1.1272336e-07
3.4944248e-08
9.9166653e-09
2.5852651e-09
6.1026741e-10
1.2617008e-10
2.1578369e-11
2.8182938e-12
3.1928147e-13
1.2988183e-13
1.4190459e-13
0.00068815181
0.00023158379
0.00014246751
0.00015762531
0.00015870849
0.00013444153
0.00010690437
8.1875742e-05
6.5110535e-05
4.7805625e-05
2.4962868e-05
1.4457433e-05
1.1565223e-05
8.1517725e-06
4.7904772e-06
2.8533804e-06
1.6466067e-06
8.1500369e-07
3.2397637e-07
1.1196379e-07
3.4702072e-08
9.8472451e-09
2.5671514e-09
6.0600507e-10
1.2529321e-10
2.1429505e-11
2.7993224e-12
3.1753956e-13
1.2948282e-13
1.4148133e-13
0.00068991694
0.00023157818
0.0001421164
0.00015725876
0.00015845274
0.00013421831
0.00010670596
8.1697712e-05
6.4935471e-05
4.7691333e-05
2.4894935e-05
1.4419838e-05
1.1533303e-05
8.1171938e-06
4.7697599e-06
2.8409206e-06
1.6389413e-06
8.1030323e-07
3.2191699e-07
1.1120995e-07
3.4461814e-08
9.7783875e-09
2.5491864e-09
6.0177806e-10
1.2442368e-10
2.1281905e-11
2.7805148e-12
3.1581273e-13
1.2908673e-13
1.4105997e-13
0.00069167782
0.00023156767
0.00014176884
0.00015689365
0.00015819706
0.00013399539
0.00010650787
8.1520076e-05
6.4760843e-05
4.7577405e-05
2.4827267e-05
1.4382393e-05
1.1501473e-05
8.0827692e-06
4.7491379e-06
2.8285154e-06
1.6313124e-06
8.0563045e-07
3.1987136e-07
1.1046153e-07
3.422335e-08
9.7100524e-09
2.5313587e-09
5.9758342e-10
1.2356084e-10
2.1135452e-11
2.7618565e-12
3.1409965e-13
1.2869333e-13
1.4064025e-13
0.00069343373
0.00023155341
0.00014142509
0.00015653002
0.00015794153
0.00013377273
0.00010631016
8.1342823e-05
6.4586634e-05
4.7463849e-05
2.475987e-05
1.4345103e-05
1.1469732e-05
8.0484963e-06
4.7286082e-06
2.8161662e-06
1.623721e-06
8.0098663e-07
3.1784024e-07
1.0971888e-07
3.3986811e-08
9.6422817e-09
2.51368e-09
5.9342416e-10
1.2270534e-10
2.0990263e-11
2.7433626e-12
3.1240177e-13
1.2830298e-13
1.4022254e-13
0.00069518395
0.0002315374
0.00014108551
0.00015616795
0.00015768604
0.0001335504
0.00010611287
8.1166036e-05
6.4412842e-05
4.7350668e-05
2.4692743e-05
1.4307966e-05
1.143808e-05
8.0143715e-06
4.7081694e-06
2.8038709e-06
1.6161655e-06
7.9637042e-07
3.1582291e-07
1.089817e-07
3.375209e-08
9.5750411e-09
2.4961407e-09
5.8929787e-10
1.2185667e-10
2.0846246e-11
2.7250205e-12
3.107175e-13
1.279149e-13
1.3980595e-13
0.00069692778
0.00023152008
0.00014075044
0.00015580751
0.00015743064
0.00013332841
0.000105916
8.0989751e-05
6.4239509e-05
4.7237861e-05
2.4625884e-05
1.4270977e-05
1.1406513e-05
7.9803933e-06
4.6878273e-06
2.791629e-06
1.6086457e-06
7.9178147e-07
3.1381934e-07
1.0825003e-07
3.3519206e-08
9.5083418e-09
2.4787445e-09
5.852056e-10
1.2101508e-10
2.0703447e-11
2.7068371e-12
3.0904789e-13
1.2752971e-13
1.3939117e-13
0.00069866448
0.00023150021
0.00014042021
0.00015544873
0.00015717544
0.00013310668
0.0001057195
8.0813906e-05
6.4066613e-05
4.7125431e-05
2.4559289e-05
1.4234129e-05
1.1375029e-05
7.946562e-06
4.6675738e-06
2.7794379e-06
1.6011598e-06
7.8721832e-07
3.1182859e-07
1.0752342e-07
3.3288001e-08
9.4421316e-09
2.4614765e-09
5.811436e-10
1.2017976e-10
2.0561724e-11
2.6887936e-12
3.0739116e-13
1.2714698e-13
1.3897772e-13
0.00070039333
0.0002314768
0.00014009504
0.00015509174
0.00015692045
0.00013288536
0.00010552348
8.0638483e-05
6.3894114e-05
4.701338e-05
2.4492963e-05
1.4197418e-05
1.1343624e-05
7.9128751e-06
4.6474075e-06
2.7672995e-06
1.593709e-06
7.8268237e-07
3.0985149e-07
1.0680224e-07
3.3058608e-08
9.3764523e-09
2.444349e-09
5.7711494e-10
1.1935136e-10
2.0421195e-11
2.6709052e-12
3.0574885e-13
1.2676718e-13
1.3856609e-13
0.00070211358
0.00023145066
0.00013977525
0.00015473657
0.00015666539
0.00013266453
0.00010532799
8.046348e-05
6.372201e-05
4.6901714e-05
2.4426907e-05
1.4160841e-05
1.1312298e-05
7.879328e-06
4.6273278e-06
2.7552127e-06
1.5862926e-06
7.7817294e-07
3.0788756e-07
1.0608623e-07
3.2830935e-08
9.3112742e-09
2.4273532e-09
5.7311741e-10
1.1852941e-10
2.0281771e-11
2.65316e-12
3.0411947e-13
1.2638963e-13
1.3815557e-13
0.00070382453
0.00023142384
0.00013946126
0.00015438332
0.00015641011
0.00013244414
0.000105133
8.0288856e-05
6.355031e-05
4.6790438e-05
2.4361122e-05
1.4124399e-05
1.128105e-05
7.8459191e-06
4.6073413e-06
2.7431776e-06
1.5789112e-06
7.7369014e-07
3.0593702e-07
1.0537559e-07
3.2605049e-08
9.2466212e-09
2.4104963e-09
5.691529e-10
1.1771431e-10
2.0143532e-11
2.6355693e-12
3.0250465e-13
1.2601521e-13
1.3774711e-13
0.00070552546
0.0002313974
0.00013915344
0.00015403205
0.00015615464
0.00013222428
0.00010493852
8.0114602e-05
6.337898e-05
4.6679555e-05
2.4295609e-05
1.4088087e-05
1.1249876e-05
7.8126493e-06
4.5874382e-06
2.7311913e-06
1.5715628e-06
7.6923252e-07
3.03999e-07
1.0466988e-07
3.2380794e-08
9.1824427e-09
2.393764e-09
5.6521781e-10
1.169053e-10
2.0006337e-11
2.6181146e-12
3.0090255e-13
1.2564346e-13
1.3734021e-13
0.00070721566
0.00023137051
0.00013885218
0.00015368285
0.00015589907
0.00013200489
0.00010474461
7.9940767e-05
6.3208016e-05
4.6569067e-05
2.4230363e-05
1.4051898e-05
1.1218772e-05
7.7795159e-06
4.5676173e-06
2.7192549e-06
1.564248e-06
7.6480124e-07
3.0207423e-07
1.0396946e-07
3.2158301e-08
9.1187818e-09
2.3771683e-09
5.6131518e-10
1.1610304e-10
1.9870303e-11
2.6008112e-12
2.9931453e-13
1.2527462e-13
1.3693514e-13
0.00070889443
0.00023134197
0.00013855774
0.0001533358
0.00015564347
0.00013178606
0.00010455121
7.9767396e-05
6.3037465e-05
4.6458974e-05
2.4165383e-05
1.4015826e-05
1.1187735e-05
7.7465131e-06
4.5478775e-06
2.7073663e-06
1.5569648e-06
7.6039503e-07
3.0016191e-07
1.0327394e-07
3.1937434e-08
9.0555948e-09
2.360697e-09
5.5744189e-10
1.1530686e-10
1.9735309e-11
2.5836424e-12
2.9773852e-13
1.2490776e-13
1.3653089e-13
0.00071056108
0.0002313123
0.00013827047
0.00015299097
0.00015538791
0.00013156774
0.00010435836
7.9594433e-05
6.2867296e-05
4.6349273e-05
2.4100665e-05
1.3979867e-05
1.1156764e-05
7.7136392e-06
4.5282248e-06
2.6955256e-06
1.5497143e-06
7.5601389e-07
2.982622e-07
1.0258342e-07
3.1718239e-08
8.9928985e-09
2.3443554e-09
5.5359948e-10
1.1451709e-10
1.9601422e-11
2.5666179e-12
2.9617609e-13
1.2454381e-13
1.361285e-13
0.00071221493
0.00023128362
0.00013799071
0.00015264848
0.00015513233
0.00013134993
0.00010416606
7.9421855e-05
6.2697465e-05
4.6239965e-05
2.4036209e-05
1.3944019e-05
1.1125856e-05
7.680896e-06
4.5086494e-06
2.68373e-06
1.5424943e-06
7.5165629e-07
2.9637421e-07
1.0189752e-07
3.1500568e-08
8.9306448e-09
2.32813e-09
5.4978444e-10
1.1373299e-10
1.9468506e-11
2.5497195e-12
2.9462549e-13
1.2418237e-13
1.3572753e-13
0.00071385533
0.00023125778
0.0001377189
0.00015230838
0.00015487665
0.00013113265
0.00010397427
7.9249669e-05
6.2527991e-05
4.6131052e-05
2.3972013e-05
1.3908277e-05
1.1095007e-05
7.6482804e-06
4.4891507e-06
2.6719815e-06
1.5353064e-06
7.4732363e-07
2.9449876e-07
1.0121663e-07
3.1284567e-08
8.8688808e-09
2.312034e-09
5.4600011e-10
1.1295526e-10
1.9336689e-11
2.5329638e-12
2.9308825e-13
1.2382378e-13
1.3532839e-13
0.00071548166
0.00023123476
0.00013745548
0.0001519708
0.00015462094
0.00013091581
0.00010378297
7.9077838e-05
6.2358875e-05
4.6022537e-05
2.3908076e-05
1.3872637e-05
1.1064214e-05
7.6157868e-06
4.4697282e-06
2.6602781e-06
1.5281485e-06
7.4301494e-07
2.9263525e-07
1.0054045e-07
3.1070125e-08
8.807571e-09
2.2960573e-09
5.4224396e-10
1.1218335e-10
1.920587e-11
2.5163373e-12
2.9156265e-13
1.2346724e-13
1.3493023e-13
0.0007170933
0.00023121331
0.00013720072
0.00015163579
0.00015436526
0.00013069955
0.00010359222
7.8906357e-05
6.2190084e-05
4.5914422e-05
2.3844396e-05
1.3837093e-05
1.1033475e-05
7.5834137e-06
4.4503875e-06
2.6486199e-06
1.5210217e-06
7.3873057e-07
2.907839e-07
9.9869122e-08
3.08573e-08
8.7467366e-09
2.2802063e-09
5.3851774e-10
1.1141766e-10
1.9076122e-11
2.4998504e-12
2.9005023e-13
1.2311365e-13
1.3453402e-13
0.00071868966
0.00023119335
0.000136955
0.00015130348
0.00015410973
0.0001304838
0.00010340196
7.8735255e-05
6.2021611e-05
4.5806704e-05
2.3780969e-05
1.380164e-05
1.1002788e-05
7.5511632e-06
4.4311182e-06
2.6370036e-06
1.5139237e-06
7.3446867e-07
2.8894377e-07
9.9202174e-08
3.0645924e-08
8.6863236e-09
2.2644657e-09
5.3481749e-10
1.1065734e-10
1.8947293e-11
2.483483e-12
2.8854898e-13
1.2276241e-13
1.3413916e-13
0.00072027018
0.00023117652
0.00013671863
0.00015097396
0.0001538543
0.00013026855
0.00010321219
7.8564524e-05
6.1853474e-05
4.569938e-05
2.371779e-05
1.3766274e-05
1.0972149e-05
7.5190317e-06
4.4119195e-06
2.6254306e-06
1.5068554e-06
7.302302e-07
2.871155e-07
9.8539941e-08
3.0436122e-08
8.6263718e-09
2.2488467e-09
5.3114614e-10
1.0990303e-10
1.8819494e-11
2.4672492e-12
2.8706016e-13
1.2241382e-13
1.3374601e-13
0.00072183431
0.00023116533
0.00013649205
0.00015064731
0.00015359892
0.00013005385
0.00010302294
7.8394129e-05
6.1685632e-05
4.5592449e-05
2.3654856e-05
1.373099e-05
1.0941556e-05
7.4870114e-06
4.3927909e-06
2.613899e-06
1.4998148e-06
7.260141e-07
2.8529839e-07
9.7882131e-08
3.0227779e-08
8.5668442e-09
2.2333391e-09
5.2750103e-10
1.0915413e-10
1.8692622e-11
2.4511351e-12
2.8558211e-13
1.2206715e-13
1.333538e-13
0.00072338156
0.00023116104
0.00013627568
0.00015032367
0.00015334362
0.00012983963
0.00010283417
7.822407e-05
6.1518076e-05
4.5485912e-05
2.3592163e-05
1.3695783e-05
1.0911005e-05
7.4550995e-06
4.3737378e-06
2.6024092e-06
1.4928028e-06
7.2182072e-07
2.8349271e-07
9.7228886e-08
3.002096e-08
8.5077634e-09
2.2179496e-09
5.2388396e-10
1.0841106e-10
1.8566752e-11
2.4351509e-12
2.8411629e-13
1.2172322e-13
1.3296342e-13
0.00072491147
0.00023116281
0.00013606988
0.00015000308
0.0001530884
0.00012962593
0.00010264587
7.8054338e-05
6.1350822e-05
4.5379767e-05
2.3529709e-05
1.3660647e-05
1.0880495e-05
7.4232969e-06
4.3547499e-06
2.5909577e-06
1.4858177e-06
7.1764874e-07
2.8169761e-07
9.6579806e-08
2.9815512e-08
8.449081e-09
2.2026645e-09
5.2029147e-10
1.0767306e-10
1.844175e-11
2.4192791e-12
2.82661e-13
1.2138156e-13
1.3257442e-13
0.0007264236
0.00023116967
0.000135875
0.00014968571
0.00015283345
0.00012941277
0.00010245807
7.7884926e-05
6.1183848e-05
4.5274016e-05
2.3467489e-05
1.3625578e-05
1.0850022e-05
7.3916009e-06
4.3358263e-06
2.5795463e-06
1.4788606e-06
7.1349914e-07
2.7991386e-07
9.5935219e-08
2.9611565e-08
8.3908389e-09
2.1874957e-09
5.1672662e-10
1.0694078e-10
1.8317731e-11
2.4035346e-12
2.8121758e-13
1.2104249e-13
1.3218715e-13
0.00072791755
0.00023118211
0.00013569132
0.00014937161
0.00015257877
0.00012920015
0.00010227079
7.7715865e-05
6.101715e-05
4.5168656e-05
2.34055e-05
1.359057e-05
1.0819581e-05
7.3600056e-06
4.3169665e-06
2.5681727e-06
1.4719291e-06
7.0937062e-07
2.7814075e-07
9.5294823e-08
2.9409005e-08
8.3330013e-09
2.172433e-09
5.1318678e-10
1.0621365e-10
1.8194595e-11
2.3879035e-12
2.7978421e-13
1.2070512e-13
1.3180073e-13
0.00072939297
0.00023120233
0.00013551925
0.00014906092
0.00015232428
0.00012898808
0.00010208397
7.7547134e-05
6.0850735e-05
4.5063683e-05
2.3343734e-05
1.3555617e-05
1.0789168e-05
7.3285079e-06
4.2981756e-06
2.556837e-06
1.4650237e-06
7.052632e-07
2.7637834e-07
9.4658705e-08
2.9207875e-08
8.275583e-09
2.1574809e-09
5.0967318e-10
1.0549198e-10
1.8072391e-11
2.3723934e-12
2.7836213e-13
1.2037023e-13
1.3141601e-13
0.00073084953
0.00023123286
0.00013535917
0.00014875375
0.00015207004
0.00012877651
0.00010189761
7.7378676e-05
6.0684569e-05
4.4959095e-05
2.3282187e-05
1.3520713e-05
1.075878e-05
7.2971084e-06
4.2794434e-06
2.5455357e-06
1.4581426e-06
7.0117549e-07
2.7462575e-07
9.4026472e-08
2.9008024e-08
8.2185358e-09
2.142626e-09
5.0618247e-10
1.0477502e-10
1.7950992e-11
2.3569874e-12
2.7694977e-13
1.2003751e-13
1.3103265e-13
0.000732287
0.00023127453
0.00013521147
0.00014845016
0.00015181595
0.00012856548
0.00010171175
7.7210517e-05
6.051864e-05
4.4854891e-05
2.3220854e-05
1.3485854e-05
1.0728416e-05
7.2658049e-06
4.2607691e-06
2.5342708e-06
1.4512874e-06
6.9710891e-07
2.7288377e-07
9.339847e-08
2.8809582e-08
8.161901e-09
2.1278799e-09
5.0271754e-10
1.0406341e-10
1.7830507e-11
2.3416994e-12
2.7554838e-13
1.197072e-13
1.3065101e-13
0.00073370513
0.00023132644
0.00013507646
0.00014815034
0.00015156217
0.00012835499
0.00010152632
7.7042656e-05
6.0352965e-05
4.475107e-05
2.3159732e-05
1.3451033e-05
1.069807e-05
7.2345911e-06
4.2421517e-06
2.52304e-06
1.4444559e-06
6.9306223e-07
2.7115184e-07
9.2774433e-08
2.8612451e-08
8.1056474e-09
2.1132337e-09
4.9927611e-10
1.0335665e-10
1.7710848e-11
2.3265172e-12
2.7415642e-13
1.193786e-13
1.3027033e-13
0.00073510377
0.00023138795
0.00013495442
0.00014785431
0.00015130881
0.00012814505
0.00010134137
7.6875073e-05
6.0187528e-05
4.4647634e-05
2.3098815e-05
1.3416245e-05
1.0667738e-05
7.2034642e-06
4.2235973e-06
2.5118437e-06
1.4376483e-06
6.8903535e-07
2.6943008e-07
9.2154434e-08
2.8416669e-08
8.0497899e-09
2.0986922e-09
4.9585949e-10
1.0265501e-10
1.7592069e-11
2.3114483e-12
2.7277499e-13
1.1905231e-13
1.2989132e-13
0.00073648277
0.00023145997
0.0001348457
0.00014756226
0.00015105579
0.00012793569
0.00010115693
7.6707804e-05
6.0022316e-05
4.4544578e-05
2.3038096e-05
1.3381485e-05
1.0637416e-05
7.1724245e-06
4.2050951e-06
2.5006781e-06
1.4308624e-06
6.8502672e-07
2.6771753e-07
9.1538073e-08
2.822209e-08
7.9942825e-09
2.0842424e-09
4.9246448e-10
1.0195782e-10
1.7474048e-11
2.2964767e-12
2.7140251e-13
1.1872792e-13
1.2951354e-13
0.00073784207
0.00023154479
0.00013475056
0.00014727425
0.00015080324
0.00012772688
0.00010097294
7.6540843e-05
5.9857348e-05
4.44419e-05
2.2977569e-05
1.3346746e-05
1.0607103e-05
7.1414698e-06
4.1866443e-06
2.4895447e-06
1.4241e-06
6.8103757e-07
2.6601485e-07
9.0925663e-08
2.8028829e-08
7.9391609e-09
2.0698943e-09
4.8909353e-10
1.012656e-10
1.7356877e-11
2.2816144e-12
2.7004008e-13
1.184057e-13
1.2913733e-13
0.00073918165
0.00023164499
0.00013466944
0.00014699041
0.00015055098
0.00012751864
0.00010078943
7.6374166e-05
5.9692618e-05
4.4339599e-05
2.2917229e-05
1.3312022e-05
1.0576794e-05
7.1105948e-06
4.1682435e-06
2.4784416e-06
1.4173593e-06
6.7706705e-07
2.6432149e-07
9.0316953e-08
2.783679e-08
7.8843947e-09
2.0556391e-09
4.8574447e-10
1.0057788e-10
1.7240471e-11
2.2668499e-12
2.6868623e-13
1.1808495e-13
1.28762e-13
0.00074050155
0.0002317613
0.0001346026
0.00014671087
0.0001502991
0.00012731097
0.00010060643
7.6207774e-05
5.9528111e-05
4.4237677e-05
2.2857071e-05
1.3277308e-05
1.0546485e-05
7.0797965e-06
4.1498995e-06
2.4673695e-06
1.4106402e-06
6.7311498e-07
2.6263758e-07
8.9712027e-08
2.7646012e-08
7.8299983e-09
2.0414815e-09
4.8241853e-10
9.9894945e-11
1.7124881e-11
2.2521904e-12
2.6734212e-13
1.1776641e-13
1.2838835e-13
0.00074180187
0.00023189293
0.00013455032
0.00014643568
0.0001500477
0.00012710388
0.00010042387
7.6041657e-05
5.9363828e-05
4.4136133e-05
2.279709e-05
1.3242597e-05
1.0516171e-05
7.049075e-06
4.131602e-06
2.4563247e-06
1.4039406e-06
6.6917976e-07
2.6096232e-07
8.9110505e-08
2.745636e-08
7.7759279e-09
2.0274092e-09
4.7911264e-10
9.9216143e-11
1.7009991e-11
2.2376208e-12
2.6600632e-13
1.1744974e-13
1.2801605e-13
0.00074308276
0.00023203961
0.00013451285
0.00014616504
0.0001497968
0.00012689741
0.00010024181
7.587582e-05
5.9199772e-05
4.4034969e-05
2.2737278e-05
1.3207884e-05
1.0485852e-05
7.0184288e-06
4.1133502e-06
2.4453085e-06
1.3972622e-06
6.6526267e-07
2.592964e-07
8.8512698e-08
2.7267949e-08
7.7222217e-09
2.0134329e-09
4.7582943e-10
9.8542027e-11
1.6895901e-11
2.2231536e-12
2.6467994e-13
1.1713516e-13
1.2764539e-13
0.00074434441
0.00023220231
0.00013449034
0.00014589899
0.0001495465
0.00012669155
0.00010006027
7.5710294e-05
5.9035943e-05
4.3934186e-05
2.2677631e-05
1.3173163e-05
1.0455523e-05
6.9878536e-06
4.0951423e-06
2.4343194e-06
1.3906035e-06
6.6136279e-07
2.5763917e-07
8.7918346e-08
2.7080681e-08
7.6688478e-09
1.9995438e-09
4.7256665e-10
9.7872102e-11
1.678252e-11
2.2087764e-12
2.6336132e-13
1.1682184e-13
1.2727551e-13
0.00074558709
0.0002323833
0.00013448317
0.00014563768
0.00014929671
0.0001264863
9.9879213e-05
7.5545074e-05
5.8872352e-05
4.3833786e-05
2.2618143e-05
1.3138427e-05
1.0425181e-05
6.9573459e-06
4.0769852e-06
2.4233575e-06
1.3839646e-06
6.5748032e-07
2.5599076e-07
8.7327539e-08
2.6894596e-08
7.6158206e-09
1.985746e-09
4.6932552e-10
9.7206635e-11
1.6669901e-11
2.1944963e-12
2.6205158e-13
1.1651047e-13
1.269072e-13
0.00074681115
0.00023258508
0.0001344915
0.00014538122
0.00014904746
0.00012628166
9.9698654e-05
7.5380145e-05
5.8708993e-05
4.3733772e-05
2.2558808e-05
1.3103668e-05
1.0394821e-05
6.9269059e-06
4.0588699e-06
2.4124201e-06
1.377343e-06
6.5361343e-07
2.5435031e-07
8.6739891e-08
2.6709553e-08
7.563096e-09
1.9720271e-09
4.6610292e-10
9.6544959e-11
1.6557926e-11
2.1802981e-12