/*--------------------------------*- C++ -*----------------------------------*\
| =========                 |                                                 |
| \\      /  F ield         | OpenFOAM: The Open Source CFD Toolbox           |
|  \\    /   O peration     | Version:  v2012                                 |
|   \\  /    A nd           | Website:  www.openfoam.com                      |
|    \\/     M anipulation  |                                                 |
\*---------------------------------------------------------------------------*/
FoamFile
{
    version     2.0;
    format      ascii;
    class       volScalarField;
    location    "700";
    object      k;
}
// * * * * * * * * * * * * * * * * * * * * * * * * * * * * * * * * * * * * * //

dimensions      [0 2 -2 0 0 0 0];


internalField   nonuniform List<scalar> 
24000
(
0.11069033
0.13941285
0.24826994
0.61701084
1.3759497
2.3042725
3.0238085
3.2135009
2.8590163
2.2542079
1.8968418
2.3458845
3.6172399
4.6959075
4.862175
4.2569397
3.2040366
2.0743456
1.1678398
0.59792241
0.28766043
0.13190136
0.057598003
0.0236699
0.0089492975
0.003001144
0.0008525798
0.00024241711
0.00032579095
0.0023147338
0.11056589
0.13909874
0.24696201
0.61253747
1.3671052
2.29262
3.0117624
3.2036921
2.851975
2.2488881
1.8919995
2.3397039
3.6077609
4.6820554
4.8461835
4.2408248
3.1899784
2.0639442
1.1613712
0.59439816
0.28590394
0.13108102
0.057236807
0.023521064
0.0088930098
0.002982234
0.00084706369
0.00024039867
0.0003217488
0.0022851148
0.11044479
0.13879099
0.24570123
0.6083908
1.3592269
2.2823355
3.0015492
3.1951579
2.8451293
2.2433479
1.8869867
2.3337971
3.5987694
4.6681141
4.8288967
4.2225765
3.1734503
2.0510234
1.1531379
0.58987986
0.28365311
0.13003197
0.056775524
0.023331105
0.0088212547
0.0029583115
0.00084053937
0.00023929634
0.0003224452
0.0022914042
0.11032169
0.13848218
0.24445219
0.60430742
1.3513852
2.2720683
2.9912472
3.1863572
2.8380111
2.2375892
1.8819504
2.3280814
3.5899201
4.6540479
4.8116733
4.2050705
3.1585442
2.0402942
1.1467787
0.58657795
0.28207044
0.12931284
0.056464367
0.02320421
0.008773573
0.0029424229
0.00083611207
0.00023824393
0.00032161753
0.0022858598
0.11019705
0.13817234
0.24320927
0.60025325
1.3435639
2.2618582
2.9809699
3.1775217
2.8308226
2.2317474
1.8768657
2.3224839
3.581267
4.6401791
4.7945324
4.1874909
3.1433753
2.029148
1.1400316
0.58300822
0.28033402
0.12851552
0.05611695
0.0230619
0.0087199615
0.0029245402
0.0008311479
0.00023713189
0.00032098258
0.0022818646
0.11007109
0.13786213
0.24197362
0.59622582
1.3357663
2.251685
2.9707063
3.1686601
2.8235815
2.2258424
1.8717574
2.3169841
3.5727889
4.6264759
4.7774891
4.1699479
3.1282141
2.0180125
1.1332984
0.57945012
0.27860497
0.12772212
0.055771369
0.022920362
0.0086666378
0.0029067487
0.00082620205
0.00023600555
0.00032027211
0.0022772955
0.109944
0.13755177
0.24074484
0.59222172
1.3279931
2.241542
2.9604603
3.1597904
2.8163107
2.2199005
1.8666379
2.3115617
3.5644522
4.6129129
4.7605292
4.1524275
3.1130338
2.006841
1.1265336
0.57587128
0.27686436
0.12692293
0.055423121
0.022777691
0.0086128773
0.0028888087
0.00082121313
0.00023486533
0.00031953861
0.0022725616
0.10981588
0.13724135
0.23952274
0.58823943
1.3202444
2.2314244
2.950231
3.1509188
2.8090224
2.2139365
1.8615144
2.3061998
3.5562232
4.5994587
4.743643
4.1349447
3.0978672
1.9956725
1.119768
0.57229082
0.27512244
0.12612293
0.055074442
0.022634818
0.0085590322
0.0028708378
0.00081621391
0.00023371909
0.00031878824
0.0022677021
0.10968682
0.13693093
0.23830708
0.58427787
1.3125202
2.2213291
2.9400177
3.1420495
2.8017268
2.2079602
1.8563919
2.3008859
3.5480767
4.5860898
4.7268223
4.1175083
3.0827321
1.9845257
1.1130153
0.56871688
0.27338344
0.12532416
0.05472626
0.022492135
0.0085052551
0.0028528884
0.00081121955
0.00023257107
0.00031802633
0.0022627547
0.10955687
0.13662054
0.23709766
0.58033631
1.3048203
2.2112541
2.9298194
3.133185
2.7944294
2.201978
1.8512737
2.2956114
3.5399942
4.5727896
4.710062
4.1001242
3.0676409
1.9734136
1.1062847
0.56515455
0.27164988
0.12452776
0.054379066
0.022349841
0.0084516195
0.0028349847
0.00080623698
0.0002314236
0.00031725704
0.0022577492
0.10942606
0.1363102
0.23589432
0.57641422
1.2971448
2.2011978
2.9196357
3.1243273
2.7871339
2.1959948
1.8461621
2.29037
3.5319631
4.5595465
4.6933588
4.0827965
3.0526022
1.9623457
1.0995833
0.56160827
0.26992417
0.12373495
0.054033423
0.022208179
0.0083982207
0.0028171597
0.00080127578
0.00023027927
0.00031648328
0.0022527054
0.10929445
0.13599992
0.23469691
0.57251124
1.2894938
2.1911592
2.909466
3.1154773
2.7798428
2.190014
1.8410586
2.2851567
3.523974
4.5463523
4.6767096
4.0655276
3.0376214
1.9513275
1.092915
0.55808026
0.26820741
0.12294622
0.053689539
0.02206723
0.0083450886
0.002799423
0.00079633857
0.00022913883
0.00031570611
0.0022476308
0.10916206
0.13568972
0.23350538
0.56862703
1.2818673
2.1811378
2.8993101
3.1066357
2.7725579
2.184038
1.8359646
2.2799682
3.5160201
4.5332009
4.6601114
4.0483191
3.0227024
1.9403632
1.0862832
0.55457249
0.26650066
0.12216211
0.053347665
0.021927104
0.008292267
0.00278179
0.00079142995
0.00022800384
0.00031492817
0.0022425442
0.10902892
0.13537964
0.23231963
0.56476134
1.2742656
2.171133
2.8891676
3.0978031
2.7652804
2.1780687
1.8308808
2.2748025
3.5080967
4.5200877
4.6435631
4.0311719
3.0078473
1.9294552
1.0796891
0.5510856
0.26480418
0.12138269
0.053007821
0.021787804
0.0082397552
0.0027642601
0.00078654975
0.00022687438
0.00031414995
0.0022374489
0.10889507
0.13506969
0.23113959
0.56091399
1.2666889
2.1611445
2.8790383
3.0889805
2.7580116
2.1721077
1.8258081
2.2696581
3.5002001
4.5070094
4.627064
4.014087
2.9930583
1.9186059
1.0731349
0.54762099
0.26311877
0.1206084
0.052670222
0.021649426
0.0081875917
0.002746847
0.00078170198
0.00022575154
0.00031337263
0.0022323527
0.10876053
0.13475993
0.22996518
0.55708482
1.2591374
2.1511722
2.8689225
3.0801682
2.7507523
2.1661561
1.8207469
2.2645339
3.4923277
4.4939639
4.6106125
3.9970645
2.9783365
1.9078164
1.0666211
0.54417887
0.26144449
0.11983924
0.052334853
0.021511959
0.0081357713
0.0027295484
0.00077688592
0.00022463511
0.00031259591
0.0022272537
0.10862535
0.13445037
0.2287964
0.55327371
1.2516114
2.1412161
2.8588198
3.0713665
2.7435033
2.1602151
1.8156977
2.2594285
3.4844772
4.4809491
4.5942072
3.9801048
2.9636826
1.8970874
1.0601485
0.54075981
0.25978171
0.1190754
0.052001817
0.021375452
0.0080843136
0.0027123714
0.00077210378
0.00022352589
0.0003118213
0.0022221622
0.10848955
0.13414106
0.22763322
0.5494805
1.2441112
2.1312759
2.8487305
3.0625759
2.7362656
2.1542853
1.8106608
2.2543406
3.4766472
4.4679637
4.5778486
3.9632077
2.9490964
1.8864187
1.0537164
0.53736329
0.25813006
0.11831669
0.051671002
0.021239851
0.0080331971
0.0026953083
0.00076735331
0.00022242334
0.00031104837
0.0022170751
0.10835318
0.13383204
0.22647561
0.54570512
1.236637
2.1213519
2.8386546
3.0537973
2.7290403
2.1483675
1.8056365
2.2492699
3.4688366
4.4550066
4.561536
3.9463731
2.9345786
1.8758112
1.047326
0.53399006
0.25649002
0.11756335
0.051342547
0.021105222
0.0079824484
0.0026783687
0.00076263732
0.0002213282
0.00031027786
0.0022119972
0.10821628
0.13352336
0.22532354
0.54194748
1.2291893
2.111444
2.8285922
3.0450309
2.7218279
2.1424621
1.8006249
2.2442161
3.4610442
4.442077
4.5452682
3.929601
2.920129
1.8652645
1.0409767
0.53063977
0.25486134
0.11681527
0.051016378
0.020971529
0.0079320529
0.0026615473
0.00075795425
0.00022024005
0.00030950922
0.0022069243
0.10807887
0.13321506
0.22417702
0.53820753
1.2217684
2.1015524
2.8185436
3.0362769
2.7146288
2.1365697
1.7956265
2.2391788
3.4532689
4.4291738
4.5290445
3.912891
2.9057477
1.8547791
1.0346691
0.5273128
0.25324431
0.11607259
0.050692584
0.020838815
0.0078820285
0.0026448507
0.00075330619
0.00021915963
0.00030874378
0.0022018657
0.10794101
0.13290718
0.22303606
0.53448521
1.2143747
2.0916771
2.8085088
3.0275361
2.7074434
2.130691
1.7906414
2.2341573
3.4455099
4.4162961
4.5128655
3.8962426
2.8914339
1.8443538
1.028402
0.52400831
0.25163839
0.11533503
0.050371019
0.020707012
0.007832348
0.0026282694
0.00074869036
0.00021808628
0.00030798098
0.0021968175
0.10780273
0.13259977
0.22190069
0.53078044
1.2070076
2.0818196
2.7984881
3.0188092
2.7002721
2.1248263
1.7856697
2.2291508
3.4377662
4.4034432
4.4967304
3.879656
2.877188
1.8339895
1.0221763
0.52072704
0.25004406
0.11460287
0.050051818
0.020576183
0.0077830369
0.0026118124
0.00074410943
0.00021702066
0.00030722138
0.002191783
0.10766408
0.13229289
0.2207709
0.52709324
1.1996651
2.0719833
2.7884817
3.0100961
2.6931154
2.1189761
1.7807117
2.224159
3.4300374
4.3906149
4.4806379
3.8631305
2.8630095
1.8236852
1.0159911
0.51746831
0.2484609
0.11387585
0.049734863
0.020446276
0.0077340734
0.0025954719
0.00073956111
0.00021596204
0.0003064638
0.0021867537
0.1075251
0.13198659
0.2196467
0.52342364
1.1923474
2.0621685
2.7784898
3.0013974
2.6859738
2.1131409
1.7757673
2.2191817
3.422323
4.3778105
4.4645882
3.8466661
2.8488981
1.8134408
1.0098465
0.51423228
0.24688906
0.11315409
0.049420217
0.02031732
0.0076854711
0.0025792531
0.00073504699
0.00021491111
0.00030570972
0.0021817399
0.10738583
0.1316809
0.21852812
0.51977166
1.1850548
2.0523755
2.7685126
2.9927139
2.6788478
2.107321
1.7708369
2.2142188
3.4146225
4.3650296
4.4485819
3.8302622
2.8348531
1.8032554
1.0037415
0.51101814
0.24532803
0.1124373
0.049107732
0.020189249
0.0076372025
0.0025631461
0.00073056426
0.00021386726
0.00030495891
0.0021767401
0.10724632
0.13137589
0.21741523
0.51613736
1.1777872
2.0426045
2.7585504
2.9840457
2.6717377
2.1015168
1.7659204
2.2092697
3.4069349
4.3522716
4.432618
3.8139191
2.8208755
1.7931304
0.99767745
0.50782693
0.24377844
0.11172584
0.048797586
0.020062141
0.0075892998
0.0025471623
0.00072611623
0.00021283128
0.00030421195
0.0021717579
0.10710662
0.13107162
0.21630805
0.51252076
1.170545
2.0328556
2.7486032
2.9753932
2.6646444
2.0957288
1.7610179
2.2043339
3.3992602
4.3395366
4.4166955
3.7976362
2.8069642
1.7830644
0.99165308
0.50465779
0.2422398
0.11101944
0.048489647
0.019935939
0.0075417394
0.0025312936
0.00072170048
0.00021180235
0.00030346733
0.002166782
0.10696678
0.13076812
0.21520661
0.50892193
1.1633284
2.0231293
2.7386715
2.9667568
2.6575687
2.0899572
1.7561293
2.1994109
3.3915983
4.3268241
4.4008146
3.7814124
2.7931179
1.7730564
0.985668
0.50151064
0.24071213
0.11031814
0.048183953
0.019810665
0.0074945316
0.002515544
0.00071731835
0.00021078106
0.00030272628
0.0021618212
0.10682684
0.13046547
0.21411094
0.50534095
1.1561375
2.0134256
2.7287553
2.9581374
2.6505109
2.0842021
1.7512548
2.1945006
3.3839486
4.3141338
4.3849755
3.7652469
2.7793353
1.7631048
0.9797207
0.49838435
0.23919476
0.10962158
0.047880324
0.019686236
0.0074476435
0.0024999018
0.00071296648
0.00020976665
0.00030198837
0.0021568725
0.10668685
0.13016372
0.21302111
0.50177788
1.1489725
2.0037449
2.718855
2.949535
2.6434709
2.0784638
1.7463944
2.1896026
3.3763103
4.3014648
4.3691766
3.7491397
2.7656172
1.753211
0.97381243
0.49527987
0.23768828
0.10893009
0.047578921
0.019562726
0.0074011044
0.0024843774
0.00070864791
0.00020875983
0.00030125416
0.0021519395
0.10654687
0.12986291
0.21193719
0.49823282
1.1418337
1.9940874
2.7089708
2.94095
2.6364491
2.0727428
1.7415481
2.1847162
3.3686827
4.2888169
4.3534172
3.7330904
2.7519629
1.7433738
0.9679421
0.49219643
0.23619221
0.1082434
0.047279614
0.019440077
0.0073548909
0.0024689624
0.00070436008
0.00020775981
0.00030052234
0.0021470127
0.10640694
0.12956312
0.21085923
0.49470585
1.1347214
1.9844532
2.6991027
2.932383
2.6294457
2.0670392
1.7367158
2.1798408
3.3610652
4.2761892
4.3376978
3.7170986
2.738372
1.7335929
0.96210981
0.48913426
0.23470675
0.10756165
0.046982478
0.019318324
0.0073090181
0.0024536624
0.00070010479
0.00020676731
0.0002997945
0.0021421034
0.10626712
0.1292644
0.20978729
0.49119707
1.1276355
1.9748427
2.6892511
2.9238343
2.6224611
2.0613534
1.7318976
2.1749757
3.3534576
4.2635815
4.3220184
3.7011635
2.7248433
1.7238669
0.95631416
0.48609228
0.23323123
0.10688447
0.046687329
0.019197384
0.0072634523
0.0024384656
0.00069587861
0.00020578154
0.00029907012
0.0021372081
0.10612747
0.12896682
0.20872141
0.48770661
1.1205765
1.9652559
2.679416
2.9153039
2.6154956
2.0556856
1.7270934
2.1701205
3.3458589
4.2509932
4.3063774
3.6852853
2.7113779
1.7141976
0.95055676
0.48307166
0.23176639
0.10621225
0.046394362
0.019077344
0.0072182292
0.0024233846
0.0006916852
0.0002048034
0.00029834994
0.0021323315
0.10598803
0.12867042
0.20766168
0.48423459
1.1135445
1.9556931
2.6695976
2.9067923
2.6085495
2.0500361
1.7223032
2.165275
3.3382689
4.238424
4.2907743
3.6694631
2.6979745
1.7045833
0.94483625
0.48007146
0.23031164
0.1055447
0.046103432
0.018958141
0.0071733223
0.0024084099
0.00068752174
0.00020383193
0.00029763219
0.002127461
0.10584887
0.12837527
0.20660819
0.48078114
1.1065397
1.9461544
2.6597958
2.8982999
2.6016236
2.044405
1.7175267
2.1604385
3.330687
4.2258734
4.2752094
3.6536961
2.6846319
1.6950231
0.93915221
0.47709165
0.22886708
0.1048819
0.045814594
0.018839803
0.0071287448
0.0023935467
0.00068338988
0.00020286778
0.00029691824
0.0021226061
0.10571004
0.12808143
0.20556103
0.47734635
1.0995624
1.9366401
2.650011
2.889827
2.5947181
2.0387923
1.7127639
2.1556103
3.323113
4.2133411
4.2596823
3.6379828
2.6713481
1.6855147
0.93350259
0.47413077
0.22743184
0.10422337
0.045527613
0.018722226
0.0070844544
0.00237878
0.00067928529
0.0002019099
0.00029620723
0.0021177612
0.10557161
0.12778897
0.20452025
0.4739304
1.0926125
1.9271504
2.6402432
2.8813737
2.5878332
2.0331982
1.7080145
2.1507898
3.315546
4.2008262
4.244191
3.6223234
2.6581243
1.6760598
0.92788907
0.47119003
0.22600664
0.10356951
0.045242688
0.018605497
0.007040487
0.0023641224
0.0006752116
0.00020095921
0.00029550012
0.002112933
0.10543362
0.12749794
0.20348594
0.47053342
1.0856889
1.9176857
2.6304958
2.8729404
2.5809688
2.0276227
1.7032785
2.1459762
3.3079851
4.1883283
4.2287353
3.6067175
2.6449599
1.6666577
0.92231069
0.46826868
0.22459101
0.10292007
0.044959686
0.018489557
0.0069968177
0.002349565
0.00067116609
0.00020001485
0.0002947955
0.0021081111
0.10529615
0.12720842
0.2024582
0.46715561
1.0787917
1.9082462
2.6207688
2.8645272
2.5741248
2.0220661
1.6985558
2.141169
3.3004293
4.1758459
4.2133157
3.5911649
2.6318546
1.6573082
0.91676781
0.46536716
0.2231853
0.10227526
0.044678721
0.01837446
0.0069534695
0.0023351162
0.00066715145
0.00019907779
0.00029409529
0.0021033094
0.10515925
0.12692046
0.20143713
0.46379713
1.0719211
1.898832
2.6110622
2.856134
2.5673014
2.0165285
1.6938462
2.1363673
3.2928783
4.1633789
4.1979313
3.575664
2.6188067
1.6480093
0.91125855
0.46248413
0.22178868
0.10163461
0.044399572
0.018260105
0.0069104016
0.0023207616
0.00066316341
0.00019814698
0.00029339854
0.0020985213
0.10502299
0.12663413
0.20042286
0.46045814
1.0650774
1.8894433
2.6013761
2.847761
2.5604987
2.0110101
1.6891494
2.1315705
3.2853312
4.1509266
4.1825802
3.5602147
2.6058169
1.6387624
0.90578443
0.45962073
0.22040187
0.10099855
0.044122435
0.018146582
0.0068676501
0.002306514
0.00065920567
0.00019722324
0.00029270568
0.00209375
0.10488743
0.12634949
0.19941545
0.45713885
1.0582609
1.8800801
2.5917105
2.8394084
2.5537171
2.0055108
1.6844653
2.1267779
3.2777875
4.1384888
4.1672621
3.544816
2.5928834
1.6295657
0.90034369
0.45677573
0.21902413
0.10036665
0.043847115
0.018033803
0.0068251794
0.0022923607
0.00065527444
0.00019630534
0.00029201466
0.0020889806
0.10475265
0.12606662
0.19841501
0.45383945
1.0514718
1.8707426
2.5820652
2.8310759
2.5469568
2.0000304
1.6797935
2.1219887
3.2702463
4.1260641
4.1519773
3.5294672
2.5800056
1.6204186
0.89493629
0.45394932
0.21765567
0.099739077
0.0435737
0.017921813
0.0067830092
0.002278309
0.00065137206
0.00019539425
0.00029132762
0.0020842288
0.10461871
0.12578558
0.19742166
0.45056016
1.0447104
1.8614308
2.5724404
2.8227638
2.5402177
1.9945691
1.6751336
2.1172024
3.2627073
4.1136521
4.1367248
3.5141669
2.5671817
1.611319
0.88956043
0.45114019
0.21629569
0.099115394
0.043301973
0.017810512
0.006741099
0.0022643446
0.00064749434
0.00019448894
0.00029064375
0.002079489
0.10448567
0.12550645
0.19643553
0.44730119
1.037977
1.8521448
2.5628359
2.814472
2.5334996
1.9891266
1.6704856
2.112418
3.2551695
4.1012522
4.1215026
3.498915
2.554413
1.6022689
0.8842179
0.44834966
0.214945
0.09849604
0.04303215
0.017699999
0.0066994882
0.0022504813
0.00064364523
0.00019359035
0.0002899638
0.0020747666
0.10435362
0.12522929
0.19545674
0.44406274
1.0312718
1.8428848
2.5532517
2.8062003
2.5268024
1.983703
1.665849
2.1076348
3.2476319
4.0888635
4.1063105
3.483711
2.5416981
1.5932668
0.87890741
0.4455768
0.21360303
0.097880701
0.042764077
0.017590202
0.006658148
0.0022367088
0.00063982163
0.00019269745
0.00028928603
0.0020700493
0.10422263
0.12495417
0.19448542
0.44084504
1.024595
1.8336507
2.5436877
2.7979486
2.520126
1.9782983
1.6612235
2.1028518
3.2400934
4.0764847
4.0911487
3.4685543
2.5290365
1.5843125
0.87362916
0.44282197
0.21227007
0.097269569
0.04249786
0.017481173
0.0066171005
0.0022230353
0.00063602607
0.00019181121
0.00028861245
0.0020653514
0.10409276
0.12468118
0.19352167
0.43764831
1.017947
1.8244427
2.5341437
2.7897169
2.5134702
1.9729123
1.6566089
2.0980683
3.2325538
4.0641153
4.076016
3.4534428
2.5164263
1.5754037
0.86838101
0.4400836
0.21094519
0.096662141
0.042233249
0.0173728
0.0065763002
0.0022094447
0.00063225392
0.00019093045
0.00028794184
0.0020606647
0.1039641
0.12441039
0.19256563
0.43447281
1.0113281
1.8152607
2.5246196
2.7815049
2.5068352
1.9675449
1.6520047
2.0932834
3.2250123
4.0517548
4.0609103
3.4383764
2.5038678
1.5665417
0.86316435
0.4373628
0.20962908
0.096058793
0.041970433
0.017265168
0.0065357814
0.0021959491
0.0006285086
0.00019005595
0.00028727478
0.0020559936
0.10383673
0.12414188
0.19161743
0.43131877
1.0047383
1.8061048
2.5151153
2.7733123
2.5002207
1.9621959
1.6474105
2.0884965
3.217468
4.0394025
4.0458314
3.4233543
2.4913598
1.5577247
0.85797777
0.43465855
0.20832112
0.095459197
0.04170925
0.017158205
0.0064955144
0.0021825379
0.00062478694
0.00018918671
0.0002866097
0.002051327
0.10371072
0.12387572
0.19067724
0.42818643
0.99817821
1.7969752
2.5056307
2.7651392
2.4936264
1.9568649
1.6428259
2.0837064
3.2099195
4.0270568
4.0307793
3.4083757
2.4789016
1.5489527
0.85282155
0.43197127
0.20702164
0.094863553
0.041449807
0.017051961
0.0064555214
0.0021692191
0.00062109145
0.00018832366
0.00028594847
0.0020466783
0.10358615
0.123612
0.1897452
0.42507601
0.99164791
1.7878718
2.4961654
2.7569851
2.4870521
1.951552
1.6382504
2.0789124
3.2023665
4.0147171
4.0157528
3.3934391
2.4664916
1.5402236
0.84769379
0.42929957
0.2057298
0.094271413
0.041191884
0.016946338
0.0064157623
0.0021559788
0.00061741804
0.00018746579
0.00028529021
0.0020420418
0.10346312
0.1233508
0.18882142
0.42198777
0.98514767
1.7787947
2.4867194
2.7488497
2.4804973
1.9462568
1.6336838
2.0741136
3.1948079
4.0023826
4.0007495
3.3785439
2.4541305
1.5315391
0.84259605
0.42664464
0.20444634
0.093683179
0.040935682
0.016841426
0.0063762734
0.0021428294
0.0006137703
0.00018661394
0.00028463557
0.0020374222
0.1033417
0.12309221
0.18790605
0.41892196
0.97867785
1.7697439
2.4772924
2.7407327
2.4739619
1.9409792
1.6291256
2.069309
3.1872428
3.9900524
3.9857691
3.3636893
2.4418167
1.5228972
0.83752686
0.42400545
0.20317065
0.093098525
0.040681039
0.016737152
0.0063370251
0.0021297606
0.00061014506
0.00018576701
0.00028398267
0.0020328062
0.10322198
0.12283631
0.18699923
0.41587882
0.97223863
1.7607194
2.4678842
2.7326338
2.4674457
1.9357189
1.6245752
2.0644978
3.1796698
3.977725
3.9708115
3.3488742
2.4295491
1.5142974
0.83248614
0.42138217
0.20190291
0.092517576
0.040428027
0.016633552
0.0062980328
0.0021167782
0.00060654416
0.0001849258
0.00028333328
0.0020282068
0.10310406
0.1225832
0.18610113
0.41285863
0.96583038
1.7517213
2.4584947
2.7245527
2.4609483
1.9304754
1.6200321
2.0596791
3.1720885
3.9653995
3.9558753
3.3340969
2.4173257
1.5057374
0.82747195
0.41877341
0.20064229
0.09193989
0.04017643
0.016530529
0.0062592578
0.0021038684
0.00060296369
0.00018408939
0.00028268673
0.0020236195
0.10298802
0.12233296
0.18521193
0.40986158
0.95945333
1.7427497
2.4491236
2.7164889
2.4544692
1.9252485
1.6154961
2.0548521
3.1644979
3.9530752
3.9409583
3.319357
2.4051477
1.4972191
0.82248594
0.41618038
0.19938953
0.091365861
0.039926442
0.016428171
0.0062207345
0.0020910433
0.00059940707
0.00018325855
0.00028204358
0.0020190486
0.10287395
0.12208568
0.18433175
0.40688795
0.95310773
1.7338046
2.4397707
2.7084421
2.4480078
1.9200379
1.6109665
2.0500158
3.156897
3.9407512
3.9260597
3.3046537
2.3930137
1.488741
0.81752683
0.41360221
0.19814408
0.090795203
0.03967792
0.016326412
0.0061824373
0.0020782938
0.00059587154
0.00018243238
0.00028140229
0.0020144834
0.10276195
0.12184148
0.18346075
0.40393794
0.9467939
1.724886
2.4304358
2.7004117
2.4415638
1.9148433
1.6064429
2.0451693
3.1492845
3.9284259
3.9111798
3.289986
2.3809227
1.4803025
0.8125946
0.41103907
0.19690616
0.090228053
0.039430943
0.016225292
0.0061443823
0.0020656258
0.00059235894
0.00018161157
0.00028076432
0.0020099345
0.10265213
0.12160044
0.18259906
0.40101183
0.94051203
1.715994
2.4211186
2.6923974
2.4351368
1.9096644
1.6019249
2.0403118
3.1416598
3.9160984
3.8963172
3.2753521
2.3688722
1.4719011
0.8076872
0.40848955
0.19567494
0.089663975
0.0391853
0.016124715
0.0061065323
0.0020530262
0.00058886548
0.00018079518
0.00028012884
0.0020053963
0.10254457
0.12136267
0.18174686
0.39810986
0.93426248
1.7071286
2.411819
2.6843988
2.4287264
1.9045008
1.5974118
2.0354427
3.1340221
3.9037679
3.8814694
3.2607512
2.3568632
1.4635383
0.80280605
0.40595472
0.19445104
0.08910331
0.038941157
0.016024758
0.0060689168
0.0020405053
0.00058539411
0.00017998389
0.00027949645
0.0020008735
0.10243938
0.12112827
0.18090432
0.39523222
0.92804549
1.6982901
2.4025367
2.6764154
2.4223321
1.8993521
1.5929033
2.0305609
3.1263708
3.8914339
3.8666357
3.2461826
2.3448946
1.4552128
0.79794993
0.40343369
0.19323396
0.08854578
0.038698379
0.015925358
0.0060315111
0.0020280545
0.00058194216
0.00017917684
0.0002788657
0.0019963557
0.10233667
0.12089734
0.1800716
0.39237918
0.9218613
1.6894783
2.3932717
2.6684467
2.4159533
1.8942179
1.5883989
2.0256657
3.1187044
3.8790947
3.8518164
3.2316455
2.3329653
1.4469241
0.79311884
0.40092668
0.19202388
0.087991521
0.038457039
0.015826552
0.0059943305
0.0020156793
0.00057851144
0.00017837477
0.0002782382
0.0019918548
0.10223653
0.12067
0.17924887
0.38955088
0.91571021
1.6806935
2.3840237
2.6604924
2.4095896
1.8890979
1.5838981
2.0207562
3.1110223
3.8667495
3.8370103
3.2171381
2.321073
1.4386697
0.78831083
0.39843236
0.19082003
0.087440113
0.038216938
0.015728251
0.0059573396
0.0020033674
0.0005750984
0.00017757684
0.0002776133
0.0019873665
0.10213907
0.12044636
0.17843625
0.3867476
0.90959242
1.6719356
2.3747925
2.6525519
2.4032402
1.8839918
1.5794005
2.015832
3.1033239
3.8543974
3.822215
3.2026599
2.3092187
1.4304513
0.78352748
0.39595185
0.18962309
0.086891926
0.037978251
0.015630534
0.0059205698
0.0019911297
0.00057170616
0.00017678374
0.00027699144
0.0019828942
0.10204442
0.12022655
0.17763391
0.38396951
0.90350822
1.6632048
2.3655781
2.6446247
2.3969048
1.8788992
1.5749057
2.0108922
3.0956086
3.8420381
3.8074297
3.18821
2.2974013
1.4222676
0.77876752
0.39348426
0.18843253
0.086346669
0.037740838
0.015533336
0.0058839951
0.0019789568
0.00056833186
0.00017599446
0.00027637086
0.0019784258
0.10195267
0.12001066
0.17684202
0.3812168
0.89745786
1.6545014
2.3563802
2.6367105
2.3905828
1.8738198
1.5704131
2.0059362
3.0878755
3.8296703
3.792655
3.1737878
2.28562
1.4141181
0.77403091
0.39102975
0.1872485
0.085804465
0.037504768
0.015436693
0.0058476306
0.0019668544
0.00056497724
0.00017520975
0.00027575318
0.0019739729
0.10186394
0.11979884
0.17606074
0.37848968
0.89144156
1.6458252
2.3471989
2.6288088
2.3842737
1.8687531
1.5659224
2.0009633
3.0801241
3.8172934
3.7778899
3.1593915
2.2738724
1.4060004
0.76931563
0.38858695
0.18607022
0.085264889
0.037269837
0.015340513
0.0058114398
0.0019548097
0.00056163867
0.00017442873
0.00027513776
0.0019695312
0.10177835
0.11959119
0.17529024
0.37578828
0.88545962
1.6371765
2.338034
2.6209191
2.377977
1.8636989
1.5614331
1.9959731
3.0723539
3.8049068
3.7631323
3.1450209
2.2621594
1.397916
0.76462329
0.38615705
0.1848984
0.084728325
0.037036231
0.015244879
0.0057754561
0.0019428344
0.00055831946
0.00017365221
0.00027452536
0.0019651065
0.10169601
0.11938785
0.17453068
0.3731128
0.87951219
1.6285555
2.3288854
2.6130413
2.3716921
1.8586569
1.556945
1.9909651
3.0645647
3.7925103
3.7483815
3.1306752
2.2504803
1.3898639
0.75995291
0.38373929
0.18373256
0.084194515
0.036803822
0.015149734
0.0057396554
0.0019309199
0.00055501697
0.00017287922
0.00027391419
0.0019606861
0.10161705
0.11918896
0.17378219
0.37046337
0.87359953
1.6199623
2.3197532
2.6051747
2.3654185
1.8536268
1.5524576
1.9859389
3.0567561
3.7801032
3.7336382
3.116354
2.2388344
1.3818438
0.75530451
0.38133387
0.1825729
0.083663585
0.036572681
0.015055112
0.0057040524
0.0019190716
0.00055173291
0.00017211046
0.00027330568
0.0019562806
0.10154159
0.11899464
0.17304493
0.36784012
0.86772185
1.611397
2.3106373
2.597319
2.3591558
1.8486082
1.5479706
1.9808943
3.0489279
3.7676852
3.718902
3.102056
2.2272195
1.373853
0.75067579
0.37893922
0.18141851
0.083135055
0.036342574
0.014960909
0.0056686062
0.0019072752
0.0005484632
0.00017134495
0.00027269907
0.0019518848
0.10146976
0.11880503
0.17231905
0.36524322
0.86187933
1.6028599
2.3015377
2.5894741
2.3529033
1.8436009
1.5434835
1.975831
3.0410801
3.755256
3.7041713
3.0877809
2.2156365
1.3658933
0.74606844
0.37655655
0.18027011
0.082609318
0.036113695
0.014867213
0.0056333513
0.0018955428
0.00054521134
0.00017058362
0.00027209536
0.0019475062
0.10140167
0.11862026
0.17160472
0.36267272
0.85607223
1.594351
2.2924546
2.5816395
2.3466607
1.8386047
1.5389961
1.9707493
3.0332131
3.742816
3.6894456
3.0735284
2.2040848
1.3579639
0.74148168
0.37418529
0.17912732
0.082086162
0.035885936
0.014773972
0.0055982671
0.0018838668
0.00054197499
0.00016982557
0.00027149291
0.0019431332
0.10133747
0.11844049
0.17090211
0.36012881
0.85030072
1.5858707
2.2833879
2.573815
2.3404274
1.8336193
1.5345078
1.9656493
3.025327
3.7303649
3.6747256
3.0592984
2.1925644
1.3500649
0.73691589
0.3718258
0.17799044
0.081565763
0.035659389
0.014681231
0.005563372
0.001872254
0.00053875614
0.00016907152
0.00027089307
0.0019387757
0.10127728
0.11826586
0.17021135
0.35761151
0.84456497
1.5774191
2.2743377
2.5660005
2.334203
1.8286445
1.5300183
1.9605317
3.0174226
3.7179031
3.6600119
3.0450899
2.1810733
1.3421937
0.73236876
0.36947651
0.17685853
0.081047622
0.035433815
0.014588883
0.0055286234
0.0018606895
0.00053555052
0.00016832035
0.00027029467
0.0019344255
0.10122123
0.11809651
0.16953259
0.35512092
0.83886517
1.5689964
2.2653043
2.5581956
2.3279873
1.8236801
1.5255268
1.9553974
3.0095005
3.7054306
3.6453032
3.0309029
2.1696122
1.3343516
0.72784162
0.36713841
0.1757322
0.080532076
0.03520938
0.014497004
0.0054940517
0.0018491839
0.0005323612
0.0001675729
0.00026969876
0.0019300904
0.10116947
0.1179326
0.16886596
0.35265712
0.83320143
1.5606028
2.2562876
2.5504003
2.3217798
1.818726
1.5210326
1.9502483
3.0015618
3.6929483
3.630599
3.0167371
2.1581805
1.3265381
0.72333384
0.36481097
0.17461111
0.080018931
0.034985984
0.014405547
0.005459637
0.0018377302
0.00052918601
0.00016682841
0.00026910403
0.0019257614
0.10112212
0.11777427
0.16821161
0.35022011
0.82757396
1.5522386
2.247288
2.5426146
2.3155801
1.8137819
1.5165348
1.9450867
2.9936073
3.6804562
3.6159002
3.0025926
2.1467785
1.3187537
0.71884608
0.36249478
0.17349565
0.079508409
0.03476374
0.014314564
0.0054254014
0.0018263361
0.00052602735
0.00016608774
0.00026851205
0.0019214498
0.10107933
0.11762168
0.16756968
0.34781002
0.82198291
1.5439039
2.2383055
2.5348382
2.309388
1.8088479
1.5120319
1.9399161
2.9856382
3.6679549
3.6012078
2.9884688
2.1354046
1.3109958
0.71437609
0.36018827
0.17238489
0.079000024
0.034542412
0.01422395
0.0053913028
0.001814987
0.00052288094
0.00016534973
0.00026792141
0.0019171457
0.10104124
0.11747499
0.16694032
0.34542683
0.81642841
1.535599
2.2293405
2.5270712
2.3032032
1.8039218
1.507529
1.9347353
2.9776547
3.6554444
3.5865209
2.9743658
2.1240595
1.3032657
0.70992512
0.35789237
0.17127942
0.07849409
0.034322158
0.014133778
0.0053573702
0.0018036932
0.00051974978
0.00016461514
0.00026733293
0.0019128552
0.10100799
0.11733436
0.16632368
0.34307055
0.81091059
1.5273242
2.2203931
2.5193138
2.2970255
1.7990029
1.5030283
1.9295451
2.9696572
3.6429254
3.5718388
2.9602833
2.1127426
1.2955628
0.70549255
0.35560656
0.17017889
0.077990411
0.034102877
0.014043998
0.005323584
0.0017924473
0.00051663162
0.00016388323
0.00026674543
0.0019085702
0.10097973
0.11719994
0.1657199
0.34074121
0.80542956
1.5190796
2.2114637
2.5115659
2.290855
1.7940908
1.4985298
1.9243459
2.9616461
3.630398
3.557162
2.9462213
2.1014543
1.2878879
0.70107919
0.35333153
0.16908374
0.077489236
0.033884694
0.01395467
0.0052899678
0.0017812579
0.00051352905
0.00016315493
0.00026616064
0.001904303
0.1009566
0.11707189
0.16512908
0.33843874
0.79998543
1.5108655
2.2025524
2.5038277
2.2846915
1.7891855
1.4940337
1.9191388
2.9536221
3.6178625
3.5424917
2.9321793
2.090193
1.2802387
0.69668304
0.35106586
0.16799314
0.076990122
0.033667395
0.013865698
0.0052564832
0.0017701114
0.00051043807
0.00016242908
0.00026557708
0.0019000433
0.10093875
0.11695039
0.16455135
0.33616319
0.7945783
1.5026821
2.1936596
2.4960993
2.2785351
1.7842868
1.4895401
1.9139241
2.9455858
3.6053192
3.5278274
2.9181576
2.0789594
1.2726163
0.69230505
0.3488103
0.16690756
0.076493337
0.033451115
0.013777143
0.0052231555
0.0017590171
0.00050736134
0.00016170634
0.00026499539
0.001895796
0.10092633
0.1168356
0.16398684
0.3339145
0.78920829
1.4945297
2.1847857
2.4883811
2.2723859
1.7793947
1.4850493
1.9087029
2.937538
3.5927691
3.5131685
2.904156
2.0677531
1.2650196
0.68794441
0.34656423
0.16582662
0.075998664
0.033235742
0.013688955
0.0051899635
0.0017479671
0.00050429654
0.00016098598
0.0002644144
0.0018915529
0.1009195
0.11672767
0.16343568
0.33169262
0.78387549
1.4864086