/*--------------------------------*- C++ -*----------------------------------*\
| =========                 |                                                 |
| \\      /  F ield         | OpenFOAM: The Open Source CFD Toolbox           |
|  \\    /   O peration     | Version:  v2012                                 |
|   \\  /    A nd           | Website:  www.openfoam.com                      |
|    \\/     M anipulation  |                                                 |
\*---------------------------------------------------------------------------*/
FoamFile
{
    version     2.0;
    format      ascii;
    class       volScalarField;
    location    "700";
    object      Ma;
}
// * * * * * * * * * * * * * * * * * * * * * * * * * * * * * * * * * * * * * //

dimensions      [0 0 0 0 0 0 0];


internalField   nonuniform List<scalar> 
24000
(
0.045016887
0.045345402
0.046450587
0.048071231
0.048778763
0.047890416
0.046170197
0.04432158
0.042466935
0.040431873
0.037834173
0.034396953
0.030689858
0.027105032
0.023517742
0.019990562
0.016734783
0.013835678
0.011314341
0.0091697966
0.0073738285
0.0058785198
0.0046347934
0.0035997436
0.0027376927
0.0020192973
0.0014204088
0.00092108421
0.00050479917
0.00015783043
0.044995518
0.045324502
0.046430301
0.048054173
0.048769044
0.047883428
0.046158453
0.044303275
0.042443066
0.040404385
0.037804704
0.034367018
0.030660533
0.027075071
0.023486921
0.019960068
0.016704911
0.01380648
0.01128603
0.0091427107
0.007348427
0.0058553196
0.0046142603
0.0035821987
0.0027232714
0.0020079712
0.0014120256
0.00091541519
0.00050157946
0.00015678701
0.044976452
0.045303198
0.046402647
0.04802245
0.048743117
0.047862166
0.046136872
0.044279683
0.04241792
0.040378078
0.037778076
0.034340868
0.030635738
0.027050809
0.023463139
0.019938336
0.016686382
0.013791705
0.011275234
0.0091357124
0.0073445841
0.0058538053
0.0046142826
0.0035831018
0.0027245643
0.0020093165
0.0014132086
0.00091631319
0.00050213378
0.0001569799
0.044956476
0.045281574
0.046376719
0.047995069
0.048722226
0.047845041
0.046118045
0.044257289
0.042392539
0.04035067
0.037749718
0.034312492
0.030608346
0.027023751
0.023436699
0.019914295
0.016665617
0.013774324
0.011261033
0.0091243034
0.0073354615
0.0058465273
0.0046085096
0.0035785763
0.0027210871
0.0020067249
0.0014113677
0.00091510783
0.00050146681
0.00015676891
0.04493635
0.04525983
0.046350895
0.047967895
0.048701484
0.047828069
0.046099095
0.04423462
0.042366788
0.040322876
0.037720901
0.034283578
0.030580451
0.026996314
0.023409992
0.019890043
0.016644653
0.013756771
0.011246766
0.009113006
0.0073266443
0.0058397121
0.0046032886
0.0035746245
0.0027181478
0.0020045971
0.0014098943
0.00091416455
0.0005009552
0.00015661042
0.044916087
0.045238073
0.046325357
0.047941243
0.04868125
0.047811598
0.046080445
0.044212066
0.042341042
0.040294989
0.037691863
0.034254307
0.030552137
0.026968423
0.023382799
0.019865284
0.016623159
0.013738691
0.011231988
0.0091012118
0.0073173561
0.0058324613
0.0045976784
0.0035703367
0.0027149307
0.0020022506
0.0014082582
0.00091311116
0.00050038081
0.00015643154
0.044895768
0.04521634
0.046300004
0.04791479
0.048661219
0.047795375
0.046061945
0.044189557
0.042315299
0.040267056
0.037662687
0.034224803
0.030523557
0.026940243
0.023355291
0.01984019
0.016601339
0.013720293
0.011216921
0.0090891624
0.0073078521
0.0058250278
0.0045919182
0.0035659277
0.0027116186
0.0019998318
0.0014065705
0.00091202357
0.00049978748
0.00015624675
0.044875428
0.045194637
0.046274773
0.047888493
0.048641313
0.047779303
0.046043539
0.044167147
0.042289595
0.040239113
0.037633433
0.034195155
0.030494785
0.026911856
0.023327583
0.019814874
0.016579296
0.013701689
0.011201654
0.0090769347
0.0072981926
0.0058174626
0.0045860456
0.0035614269
0.0027082338
0.001997358
0.0014048428
0.00091090969
0.00049917952
0.00015605736
0.044855086
0.045172971
0.046249638
0.047862266
0.048621485
0.04776336
0.046025257
0.04414478
0.042263915
0.040211168
0.037604135
0.034165417
0.030465879
0.026883337
0.023299728
0.019789417
0.016557112
0.013682948
0.011186259
0.0090645933
0.0072884308
0.005809809
0.0045800992
0.0035568659
0.0027047996
0.0019948464
0.0014030879
0.0009097775
0.00049856149
0.00015586477
0.044834755
0.045151346
0.046224574
0.047836098
0.048601693
0.047747488
0.04600701
0.044122444
0.042238255
0.040183225
0.037574806
0.034135614
0.030436884
0.026854724
0.023271778
0.019763871
0.016534831
0.013664116
0.011170784
0.0090521767
0.0072785988
0.0058020941
0.0045741016
0.0035522619
0.0027013316
0.0019923085
0.001401314
0.00090863271
0.00049793653
0.00015566999
0.044814431
0.04512976
0.04619959
0.047809955
0.048581922
0.047731683
0.045988859
0.044100142
0.042212615
0.040155286
0.037545457
0.034105765
0.030407856
0.026826063
0.023243781
0.019738266
0.0165125
0.013645228
0.011155262
0.0090397141
0.0072687253
0.0057943418
0.0045680711
0.0035476307
0.0026978421
0.0019897534
0.0013995275
0.00090747958
0.00049730694
0.00015547372
0.044794123
0.045108207
0.046174677
0.047783821
0.048562157
0.047715938
0.04597074
0.044077909
0.042186998
0.04012736
0.037516107
0.034075891
0.030378788
0.026797367
0.023215763
0.019712638
0.016490142
0.013626316
0.01113971
0.009027222
0.0072588233
0.0057865629
0.0045620167
0.003542979
0.0026943351
0.0019871848
0.0013977309
0.00090631967
0.00049667353
0.00015527623
0.04477383
0.045086685
0.046149781
0.047757709
0.048542383
0.047700231
0.045952683
0.044055699
0.042161401
0.040099447
0.037486759
0.034046008
0.030349698
0.026768657
0.023187731
0.019687009
0.016467782
0.013607403
0.011124149
0.0090147195
0.0072489131
0.0057787731
0.0045559526
0.0035383182
0.0026908212
0.0019846107
0.0013959299
0.00090515701
0.0004960384
0.0001550782
0.044753552
0.045065192
0.046124937
0.047731577
0.048522605
0.047684576
0.045934672
0.044033507
0.042135825
0.040071547
0.037457413
0.034016131
0.030320594
0.026739943
0.023159696
0.019661385
0.016445422
0.01358849
0.011108586
0.0090022137
0.0072389961
0.0057709779
0.0045498808
0.0035336504
0.0026873012
0.0019820319
0.0013941257
0.00090399196
0.00049540188
0.00015487974
0.044733287
0.045043727
0.046100135
0.047705463
0.048502805
0.047668948
0.045916696
0.044011355
0.042110269
0.040043661
0.037428074
0.033986253
0.030291511
0.026711237
0.023131691
0.019635775
0.016423081
0.013569589
0.011093039
0.0089897167
0.0072290821
0.0057631836
0.0045438093
0.0035289824
0.00268378
0.0019794522
0.0013923205
0.00090282628
0.00049476495
0.00015468117
0.044713036
0.045022287
0.046075387
0.047679328
0.04848299
0.047653372
0.045898785
0.043989256
0.042084736
0.040015793
0.037398749
0.033956377
0.030262434
0.026682545
0.023103704
0.019610192
0.016400766
0.013550708
0.01107751
0.0089772326
0.0072191744
0.005755391
0.0045377386
0.0035243135
0.0026802569
0.0019768706
0.001390514
0.00090165945
0.00049412749
0.00015448241
0.044692795
0.04500087
0.046050674
0.047653197
0.048463152
0.047637826
0.045880886
0.043967176
0.042059225
0.039987942
0.037369434
0.033926519
0.030233364
0.026653868
0.023075738
0.019584647
0.016378485
0.013531864
0.011062005
0.0089647667
0.0072092814
0.0057476098
0.0045316751
0.0035196496
0.002676738
0.0019742914
0.001388709
0.00090049357
0.00049349061
0.00015428381
0.044672566
0.044979476
0.046025982
0.047627049
0.048443285
0.047622313
0.045863067
0.043945112
0.042033734
0.039960107
0.037340129
0.033896677
0.030204301
0.026625212
0.0230478
0.019559131
0.01635623
0.013513045
0.011046519
0.0089523159
0.0071994004
0.0057398356
0.0045256165
0.0035149893
0.002673221
0.0019717131
0.0013869045
0.00089932794
0.00049285387
0.00015408524
0.044652348
0.044958105
0.046001319
0.047600895
0.048423397
0.047606838
0.04584525
0.043923099
0.042008272
0.039932289
0.037310848
0.033866855
0.030175271
0.026596579
0.023019906
0.019533648
0.01633401
0.013494256
0.01103106
0.0089398865
0.0071895367
0.0057320736
0.0045195672
0.0035103352
0.0026697088
0.0019691383
0.0013851021
0.00089816366
0.00049221781
0.00015388688
0.044632141
0.044936752
0.045976702
0.04757473
0.04840347
0.047591388
0.045827507
0.043901124
0.04198284
0.039904489
0.037281582
0.033837046
0.030146262
0.026567974
0.02299204
0.019508204
0.016311831
0.013475498
0.011015633
0.0089274787
0.0071796869
0.005724323
0.0045135241
0.0035056852
0.0026661994
0.0019665653
0.0013833007
0.00089700011
0.00049158197
0.00015368858
0.044611944
0.044915419
0.045952131
0.047548545
0.048383515
0.047575979
0.045809778
0.043879165
0.04195743
0.039876708
0.03725233
0.033807256
0.030117269
0.026539392
0.022964206
0.019482811
0.016289695
0.013456781
0.011000241
0.0089151012
0.0071698578
0.0057165886
0.0045074935
0.0035010448
0.0026626971
0.0019639978
0.0013815033
0.00089583898
0.00049094739
0.00015349067
0.044591758
0.044894108
0.04592758
0.04752235
0.048363522
0.047560593
0.045792101
0.043857221
0.04193204
0.039848946
0.037223101
0.03377749
0.030088295
0.026510845
0.022936419
0.019457454
0.016267597
0.013438105
0.010984876
0.0089027461
0.0071600472
0.0057088663
0.0045014735
0.003496412
0.0026591995
0.0019614337
0.0013797082
0.00089467935
0.0004903136
0.00015329305
0.044571582
0.044872819
0.045903054
0.047496122
0.048343494
0.047545232
0.045774455
0.043835346
0.041906673
0.039821204
0.037193891
0.033747756
0.030059358
0.026482327
0.022908677
0.019432144
0.016245541
0.013419467
0.010969546
0.0088904184
0.0071502582
0.0057011619
0.004495466
0.0034917887
0.0026557088
0.0019588747
0.0013779168
0.00089352197
0.00048968118
0.00015309583
0.044551419
0.044851543
0.045878555
0.047469891
0.04832344
0.047529887
0.045756842
0.043813489
0.041881327
0.039793481
0.037164697
0.033718044
0.030030452
0.026453844
0.022880971
0.019406879
0.016223534
0.013400867
0.010954247
0.0088781142
0.0071404885
0.005693469
0.0044894663
0.0034871706
0.0026522222
0.0019563175
0.0013761265
0.00089236516
0.00048904911
0.00015289871
0.044531268
0.044830293
0.045854103
0.047443632
0.048303342
0.047514546
0.045739272
0.043791645
0.041856001
0.039765776
0.037135524
0.03368835
0.030001566
0.026425387
0.0228533
0.019381667
0.016201575
0.013382307
0.010938991
0.0088658427
0.0071307435
0.0056857953
0.004483482
0.003482564
0.0026487437
0.0019537663
0.0013743403
0.00089121097
0.00048841848
0.00015270202
0.044511131
0.044809067
0.045829694
0.047417359
0.048283216
0.047499222
0.045721718
0.043769832
0.041830695
0.039738091
0.037106378
0.033658684
0.029972701
0.026396971
0.022825687
0.019356496
0.016179658
0.013363796
0.010923771
0.0088536012
0.0071210197
0.0056781399
0.0044775101
0.0034779666
0.0026452726
0.0019512204
0.0013725574
0.00089005899
0.00048778905
0.0001525057
0.044491007
0.044787867
0.0458053
0.047391064
0.048263047
0.047483903
0.045704222
0.043748072
0.04180541
0.039710427
0.037077251
0.033629045
0.029943873
0.026368585
0.022798114
0.019331372
0.016157785
0.013345327
0.010908587
0.0088413916
0.007111321
0.0056705041
0.0044715536
0.0034733812
0.0026418106
0.0019486814
0.0013707794
0.00088891031
0.00048716127
0.00015230991
0.044470899
0.044766694
0.04578093
0.047364745
0.04824284
0.047468594
0.045686726
0.043726323
0.041780143
0.039682783
0.037048141
0.033599438
0.029915079
0.026340231
0.022770574
0.019306293
0.016135958
0.013326893
0.010893431
0.0088292037
0.0071016394
0.0056628792
0.0044656058
0.0034688014
0.0026383519
0.0019461448
0.001369003
0.00088776248
0.00048653387
0.00015211422
0.044450806
0.04474555
0.045756592
0.047338414
0.048222598
0.047453291
0.045669297
0.043704584
0.041754892
0.039655156
0.037019054
0.03356985
0.029886305
0.026311903
0.022743072
0.019281264
0.016114174
0.013308496
0.010878309
0.0088170428
0.0070919794
0.0056552724
0.0044596714
0.0034642322
0.0026349007
0.0019436139
0.0013672306
0.00088661724
0.00048590782
0.00015191899
0.044430731
0.044724435
0.045732299
0.047312047
0.048202303
0.047437987
0.045651863
0.043682897
0.041729674
0.039627547
0.036989986
0.033540285
0.029857553
0.026283616
0.022715626
0.019256273
0.016092433
0.013290138
0.010863224
0.0088049076
0.0070823407
0.0056476795
0.0044537474
0.0034596707
0.0026314554
0.001941087
0.0013654611
0.00088547378
0.00048528292
0.0001517241
0.044410674
0.044703349
0.045708048
0.047285667
0.048181974
0.04742269
0.045634492
0.043661237
0.04170448
0.039599958
0.036960938
0.033510751
0.029828832
0.026255361
0.022688218
0.019231333
0.016070736
0.01327183
0.010848177
0.0087928039
0.0070727256
0.005640105
0.0044478385
0.0034551208
0.002628019
0.001938566
0.0013636958
0.000884333
0.00048465952
0.00015152967
0.044390635
0.044682294
0.045683809
0.047259247
0.04816159
0.047407393
0.045617117
0.043639585
0.041679303
0.039572387
0.036931915
0.033481248
0.029800155
0.02622714
0.022660846
0.019206438
0.016049085
0.013253559
0.010833161
0.0087807275
0.0070631279
0.005632545
0.004441938
0.0034505765
0.0026245861
0.0019360473
0.0013619319
0.00088319299
0.00048403657
0.00015133536
0.044370618
0.04466127
0.045659593
0.047232805
0.04814116
0.047392096
0.045599797
0.043617955
0.041654144
0.039544837
0.036902919
0.033451776
0.029771501
0.026198949
0.022633521
0.019181597
0.016027484
0.01323533
0.010818182
0.0087686826
0.0070535565
0.0056250052
0.0044360534
0.0034460443
0.0026211629
0.0019335358
0.0013601726
0.00088205599
0.00048341524
0.00015114156
0.044350622
0.04464028
0.045635409
0.047206339
0.048120686
0.047376798
0.045582482
0.043596378
0.041629003
0.039517307
0.036873944
0.033422328
0.029742872
0.0261708
0.022606249
0.019156797
0.016005928
0.013217139
0.010803237
0.0087566645
0.0070440072
0.0056174815
0.0044301815
0.0034415213
0.0026177466
0.0019310294
0.0013584168
0.00088092147
0.00048279513
0.00015094813
0.044330649
0.044619326
0.045611268
0.047179839
0.04810015
0.047361489
0.045565207
0.043574809
0.04160388
0.039489795
0.036844991
0.033392908
0.029714269
0.026142684
0.022579014
0.019132046
0.015984415
0.013198996
0.010788335
0.0087446776
0.0070344836
0.0056099793
0.004424327
0.0034370121
0.00261434
0.0019285305
0.0013566665
0.00087979031
0.00048217681
0.00015075527
0.0443107
0.044598406
0.045587167
0.047153321
0.048079569
0.047346181
0.045547944
0.043553245
0.041578771
0.039462301
0.036816064
0.033363516
0.029685714
0.026114599
0.022551814
0.019107339
0.015962943
0.013180892
0.010773463
0.0087327142
0.0070249777
0.0056024878
0.0044184795
0.0034325077
0.0026109364
0.0019260336
0.0013549175
0.00087865996
0.00048155883
0.00015056253
0.044290775
0.044577516
0.045563082
0.047126755
0.048058924
0.047330862
0.04553071
0.04353173
0.041553676
0.039434823
0.036787156
0.03333416
0.029657182
0.026086545
0.022524662
0.019082681
0.015941518
0.013162825
0.010758624
0.0087207809
0.0070154936
0.0055950136
0.004412646
0.003428014
0.0026075411
0.0019235425
0.0013531727
0.00087753225
0.0004809424
0.00015037026
0.044270878
0.044556665
0.045539014
0.04710018
0.048038224
0.047315534
0.045513494
0.043510234
0.041528596
0.039407363
0.036758268
0.033304831
0.029628674
0.026058529
0.022497556
0.019058061
0.015920136
0.013144793
0.010743814
0.0087088715
0.0070060266
0.0055875536
0.0044068221
0.0034235273
0.0026041509
0.0019210547
0.0013514301
0.00087640593
0.0004803268
0.00015017826
0.04425101
0.044535854
0.045514975
0.047073547
0.04801747
0.047300194
0.045496297
0.043488742
0.041503533
0.03937992
0.036729408
0.033275526
0.029600189
0.026030546
0.022470487
0.01903349
0.015898797
0.013126801
0.010729041
0.008696992
0.0069965847
0.0055801132
0.0044010132
0.0034190522
0.0026007696
0.0019185733
0.001349692
0.00087528249
0.00047971285
0.00014998676
0.044231172
0.044515086
0.045490979
0.047046894
0.047996644
0.047284837
0.045479125
0.043467273
0.041478499
0.039352495
0.036700575
0.033246254
0.02957175
0.026002595
0.022443453
0.019008963
0.015877498
0.013108855
0.010714302
0.0086851356
0.0069871606
0.0055726847
0.0043952125
0.0034145825
0.0025973924
0.0019160945
0.0013479553
0.00087415985
0.00047909931
0.00014979536
0.044211367
0.044494352
0.04546702
0.047020203
0.047975765
0.047269473
0.045461962
0.043445846
0.041453483
0.039325088
0.036671766
0.033217011
0.029543343
0.025974678
0.022416474
0.018984489
0.01585625
0.013090951
0.010699604
0.0086733125
0.0069777634
0.0055652784
0.0043894302
0.0034101266
0.0025940256
0.0019136238
0.0013462241
0.00087304095
0.0004784877
0.00014960457
0.044191596
0.044473659
0.045443084
0.046993466
0.047954811
0.047254089
0.045444828
0.04342442
0.041428483
0.0392977
0.036642982
0.03318781
0.029514963
0.0259468
0.022389539
0.018960054
0.015835046
0.013073084
0.010684936
0.0086615155
0.0069683877
0.0055578875
0.0043836595
0.0034056802
0.002590665
0.001911158
0.0013444965
0.00087192425
0.00047787723
0.00014941414
0.044171861
0.04445301
0.045419157
0.046966706
0.047933794
0.047238684
0.045427694
0.043402997
0.041403495
0.03927033
0.036614226
0.033158637
0.029486607
0.025918957
0.02236264
0.018935668
0.015813885
0.013055255
0.010670304
0.008649751
0.0069590353
0.0055505151
0.0043779034
0.0034012451
0.0025873131
0.0019086986
0.0013427734
0.0008708106
0.00047726834
0.00014922421
0.044152164
0.04443241
0.045395255
0.046939891
0.047912713
0.047223262
0.045410592
0.043381629
0.041378519
0.039242977
0.036585492
0.033129488
0.029458288
0.025891145
0.022335776
0.018911323
0.015792762
0.013037461
0.010655698
0.0086380056
0.0069496959
0.0055431519
0.0043721531
0.003396813
0.0025839628
0.0019062396
0.0013410507
0.00086969689
0.00047665941
0.00014903428
0.044132506
0.044411858
0.045371392
0.046913063
0.04789155
0.047207816
0.045393483
0.043360262
0.041353555
0.039215641
0.036556781
0.033100376
0.029430009
0.025863365
0.022308969
0.018887029
0.015771684
0.013019715
0.010641129
0.0086262889
0.006940381
0.0055358087
0.0043664178
0.003392393
0.002580622
0.0019037873
0.0013393326
0.00086858621
0.00047605226
0.00014884489
0.044112888
0.044391356
0.045347565
0.046886165
0.047870326
0.04719235
0.045376407
0.043338893
0.041328603
0.039188322
0.036528098
0.033071293
0.029401755
0.025835624
0.022282199
0.018862773
0.015750649
0.013002003
0.010626595
0.0086145959
0.0069310849
0.0055284791
0.0043606927
0.0033879806
0.0025772868
0.001901339
0.0013376173
0.00086747731
0.00047544617
0.00014865583
0.044093313
0.044370904
0.045323773
0.046859245
0.047849017
0.047176854
0.045359319
0.043317561
0.041303662
0.039161021
0.036499445
0.03304225
0.029373527
0.025807916
0.022255466
0.018838563
0.01572966
0.012984331
0.010612096
0.0086029349
0.0069218136
0.0055211693
0.0043549832
0.0033835801
0.0025739612
0.0018988977
0.0013359067
0.00086637146
0.00047484177
0.00014846729
0.044073782
0.044350504
0.045299978
0.046832275
0.047827636
0.04716133
0.045342264
0.043296245
0.041278733
0.039133736
0.036470817
0.033013235
0.029345326
0.025780239
0.022228767
0.018814394
0.015708708
0.012966691
0.010597624
0.0085912962
0.0069125595
0.0055138708
0.004349282
0.0033791844
0.0025706384
0.0018964584
0.001334197
0.00086526619
0.00047423761
0.00014827881
0.044054297
0.044330158
0.045276198
0.046805252
0.047806183
0.047145786
0.045325192
0.043274924
0.041253829
0.039106469
0.036442214
0.032984248
0.029317174
0.025752594
0.022202125
0.018790276
0.015687796
0.012949093
0.010583187
0.008579689
0.0069033295
0.0055065921
0.0043435968
0.0033748024
0.0025673255
0.0018940268
0.001332493
0.00086416457
0.00047363532
0.00014809091
0.044034861
0.044309868
0.045252455
0.046778205
0.047784639
0.047130205
0.045308154
0.043253624
0.041228941
0.039079219
0.036413642
0.032955298
0.029289049
0.025724988
0.02217552
0.018766196
0.01566693
0.012931536
0.01056878
0.008568104
0.0068941166
0.0054993263
0.0043379213
0.0033704271
0.0025640176
0.0018915989
0.0013307915
0.00086306464
0.00047303389
0.00014790329
0.044015469
0.044289634
0.045228746
0.046751089
0.047763027
0.047114595
0.045291094
0.043232351
0.041204062
0.039051985
0.036385094
0.03292638
0.029260948
0.025697416
0.022148949
0.018742161
0.015646108
0.012914017
0.010554412
0.008556547
0.0068849272
0.0054920802
0.0043322604
0.0033660633
0.002560718
0.001889177
0.0013290944
0.00086196746
0.00047243393
0.00014771613
0.043996128
0.044269456
0.045205068
0.046723959
0.047741322
0.047098952
0.045274066
0.04321107
0.041179191
0.039024768
0.03635657
0.0328975
0.029232872
0.025669873
0.022122414
0.018718165
0.015625323
0.01289653
0.01054007
0.0085450106
0.0068757526
0.0054848436
0.0043266056
0.0033617034
0.0025574214
0.0018867564
0.0013273981
0.00086087067
0.00047183426
0.00014752907
0.043976839
0.044249336
0.045181404
0.046696745
0.047719536
0.047083271
0.045257014
0.043189795
0.041154329
0.03899757
0.036328071
0.032868649
0.029204841
0.025642361
0.022095933
0.018694217
0.015604576
0.012879079
0.010525762
0.0085335039
0.0068666014
0.0054776258
0.0043209661
0.0033573555
0.0025541341
0.0018843426
0.0013257067
0.00085977703
0.00047123638
0.00014734257
0.043957605
0.044229275
0.045157741
0.04666951
0.047697672
0.047067559
0.045239991
0.043168557
0.041129476
0.038970389
0.036299607
0.032839827
0.029176841
0.025614886
0.022069485
0.018670307
0.015583869
0.012861664
0.010511481
0.0085220215
0.0068574696
0.0054704221
0.0043153369
0.0033530149
0.0025508527
0.0018819329
0.001324018
0.00085868517
0.00047063957
0.00014715638
0.043938427
0.044209276
0.045134101
0.04664222
0.04767571
0.047051807
0.045222943
0.043147309
0.041104629
0.038943223
0.036271169
0.032811041
0.029148866
0.025587443
0.022043071
0.018646438
0.015563206
0.012844293
0.010497234
0.0085105678
0.0068483604
0.0054632368
0.0043097231
0.0033486861
0.00254758
0.0018795301
0.0013223338
0.00085759625
0.00047004436
0.00014697069
0.043919306
0.044189336
0.045110493
0.046614873
0.047653675
0.047036017
0.045205922
0.043126055
0.041079789
0.038916073
0.036242755
0.032782286
0.029120914
0.025560028
0.022016691
0.018622607
0.01554258
0.012826951
0.010483016
0.0084991325
0.0068392642
0.0054560602
0.0043041149
0.0033443615
0.0025443092
0.0018771286
0.0013206502
0.00085650773
0.00046944922
0.00014678501
0.043900244
0.044169456
0.045086913
0.046587502
0.047631543
0.047020194
0.045188875
0.043104846
0.04105496
0.038888938
0.036214371
0.03275357
0.029092994
0.025532641
0.021990362
0.018598821
0.015521991
0.012809645
0.010468832
0.0084877239
0.0068301907
0.0054489024
0.0042985214
0.0033400478
0.0025410469
0.0018747335
0.0013189714
0.00085542218
0.00046885563
0.00014659981
0.043881242
0.044149639
0.045063359
0.046560048
0.047609323
0.047004322
0.04517185
0.043083623
0.041030152
0.038861818
0.036186013
0.032724882
0.029065117
0.025505292
0.021964065
0.018575072
0.015501436
0.012792369
0.010454674
0.0084763379
0.0068211344
0.0054417579
0.0042929376
0.0033357418
0.0025377899
0.0018723423
0.0013172954
0.00085433854
0.00046826301
0.00014641493
0.043862301
0.044129885
0.045039809
0.046532587
0.047587022
0.046988412
0.045154801
0.04306239
0.041005351
0.038834714
0.036157681
0.032696222
0.029037262
0.025477973
0.0219378
0.018551363
0.015480926
0.012775133
0.010440548
0.0084649798
0.0068121003
0.0054346313
0.0042873681
0.0033314471
0.0025345421
0.0018699574
0.001315624
0.00085325773
0.00046767195
0.00014623055
0.043843423
0.044110195
0.045016258
0.046505034
0.04756462
0.046972468
0.04513777
0.043041198
0.040980555
0.038807624
0.036129373
0.032667598
0.02900943
0.02545068
0.021911568
0.018527691
0.015460453
0.012757933
0.010426446
0.0084536438
0.0068030823
0.0054275147
0.004281805
0.0033271566
0.0025312971
0.0018675741
0.0013139536
0.00085217753
0.00046708133
0.00014604629
0.043824609
0.044090573
0.044992733
0.046477457
0.04754214
0.046956474
0.045120718
0.043019997
0.040955765
0.038780552
0.036101095
0.032639004
0.028981622
0.025423414
0.021885386
0.01850406
0.015440017
0.012740766
0.010412379
0.0084423335
0.0067940854
0.0054204159
0.0042762564
0.0033228768
0.0025280609
0.001865197
0.0013122875
0.00085110012
0.00046649231
0.00014586253
0.043805859
0.044071008
0.044969236
0.046449837
0.047519564
0.046940442
0.045103677
0.042998781
0.040930978
0.038753494
0.036072847
0.032610449
0.028953857
0.025396183
0.021859233
0.018480466
0.015419612
0.012723629
0.01039834
0.008431043
0.0067851038
0.0054133285
0.004270717
0.0033186037
0.0025248293
0.0018628237
0.0013106237
0.00085002423
0.00046590416
0.00014567903
0.043787175
0.044051509
0.044945762
0.046422146
0.047496897
0.046924368
0.045086621
0.042977604
0.040906195
0.038726449
0.036044624
0.03258192
0.028926117
0.02536898
0.021833109
0.018456908
0.015399246
0.012706524
0.010384332
0.0084197782
0.0067761437
0.0054062581
0.0042651909
0.0033143418
0.0025216057
0.0018604563
0.001308964
0.00084895095
0.00046531743
0.00014549597
0.043768557
0.044032075
0.044922311
0.046394444
0.047474148
0.046908246
0.045069568
0.042956417
0.040881414
0.038699417
0.036016426
0.032553417
0.028898396
0.025341801
0.021807016
0.018433385
0.015378915
0.012689452
0.010370346
0.0084085327
0.0067671974
0.0053991985
0.0042596717
0.0033100838
0.0025183845
0.0018580909
0.0013073054
0.00084787842
0.00046473092
0.00014531297
0.043750007
0.044012707
0.044898859
0.046366649
0.0474513
0.046892086
0.045052506
0.042935215
0.040856641
0.038672399
0.035988257
0.032524948
0.028870696
0.025314643
0.021780968
0.018409899
0.015358621
0.012672417
0.010356388
0.0083973124
0.0067582717
0.0053921556
0.0042541661
0.0033058372
0.0025151716
0.0018557317
0.0013056515
0.00084680886
0.00046414598
0.00014513046
0.043731524
0.043993405
0.044875402
0.046338846
0.047428373
0.046875882
0.045035442
0.04291405
0.040831889
0.038645395
0.035960114
0.032496506
0.028843026
0.02528752
0.021754948
0.01838645
0.015338358
0.012655409
0.010342458
0.0083861151
0.006749363
0.0053851246
0.0042486697
0.0033015978
0.0025119647
0.0018533764
0.0013040005
0.00084574121
0.00046356206
0.00014494828
0.043713111
0.043974171
0.044851971
0.046310978
0.047405352
0.046859633
0.045018375
0.042892877
0.040807141
0.038618405
0.035931995
0.032468103
0.028815391
0.025260423
0.021728955
0.018363033
0.015318128
0.012638435
0.010328561
0.0083749432
0.0067404764
0.0053781119
0.0042431869
0.0032973689
0.0025087662
0.0018510271
0.0013023539
0.00084467633
0.00046297969
0.0001447666
0.043694765
0.043955003
0.044828564
0.046283067
0.047382243
0.046843349
0.045001299
0.042871689
0.040782395
0.038591427
0.035903898
0.032439724
0.028787774
0.025233347
0.021702991
0.018339652
0.015297933
0.012621486
0.010314687
0.0083637878
0.0067316014
0.0053711072
0.0042377103
0.0032931433
0.0025055699
0.0018486789
0.0013007077
0.00084361169
0.00046239754
0.00014458498
0.043676489
0.043935901
0.044805179
0.04625514
0.047359054
0.046827018
0.044984229
0.042850538
0.040757651
0.038564462
0.03587583
0.032411368
0.028760173
0.02520629
0.021677068
0.018316301
0.015277774
0.012604572
0.01030084
0.0083526551
0.0067227455
0.005364118
0.0042322467
0.0032889277
0.0025023814
0.0018463365
0.0012990656
0.00084254968
0.00046181691
0.00014440381
0.043658281
0.043916864
0.044781812
0.046227123
0.047335771
0.046810643
0.044967145
0.042829377
0.040732909
0.038537509
0.03584779
0.032383044
0.02873259
0.025179262
0.021651169
0.018292986
0.015257642
0.012587687
0.010287014
0.0083415419
0.0067139047
0.0053571401
0.0042267911
0.0032847192
0.0024991974
0.001843998
0.0012974259
0.00084148921
0.00046123714
0.00014422292
0.043640141
0.043897891
0.044758447
0.046199113
0.047312412
0.046794236
0.044950069
0.042808203
0.040708168
0.038510567
0.035819773
0.032354743
0.028705041
0.025152256
0.021625294
0.0182697
0.015237541
0.012570832
0.010273217
0.0083304536
0.0067050842
0.0053501801
0.00422135
0.0032805215
0.0024960219
0.0018416659
0.0012957906
0.00084043172
0.00046065898
0.00014404252
0.043622071
0.043878981
0.044735071
0.046171023
0.047288965
0.046777783
0.04493298
0.042787067
0.04068343
0.038483637
0.035791777
0.032326473
0.02867751
0.025125268
0.021599444
0.018246445
0.015217469
0.012554002
0.010259443
0.0083193838
0.0066962759
0.0053432278
0.0042159141
0.0032763276
0.0024928483
0.0018393352
0.0012941564
0.00083937475
0.00046008095
0.00014386216
0.043604069
0.043860135
0.044711718
0.046142914
0.047265433
0.046761291
0.044915903
0.042765921
0.040658709
0.038456719
0.03576381
0.032298228
0.028649992
0.025098295
0.021573633
0.018223218
0.015197431
0.012537199
0.010245698
0.0083083359
0.0066874876
0.0053362909
0.0042104902
0.0032721434
0.0024896825
0.0018370099
0.0012925262
0.00083832043
0.00045950427
0.00014368222
0.043586135
0.043841352
0.044688387
0.046114784
0.04724183
0.046744771
0.044898813
0.042744766
0.040634
0.038429812
0.035735866
0.032270004
0.028622488
0.025071348
0.021547843
0.018200025
0.015177421
0.012520423
0.010231973
0.0082973033
0.006678711
0.0053293638
0.004205073
0.0032679643
0.0024865209
0.0018346874
0.001290898
0.00083726737
0.00045892829
0.0001435025
0.043568267
0.043822631
0.044665076
0.046086583
0.047218141
0.046728206
0.044881739
0.042723652
0.040609294
0.038402917
0.035707944
0.032241807
0.028595003
0.02504442
0.021522075
0.018176859
0.015157441
0.012503681
0.010218274
0.0082862945
0.0066699544
0.0053224533
0.0041996705
0.0032637959
0.0024833679
0.0018323712
0.0012892743
0.00083621727
0.00045835399
0.00014332333
0.043550465
0.043803968
0.044641783
0.046058397
0.047194383
0.046711605
0.044864651
0.042702526
0.040584591
0.038376033
0.035680041
0.03221363
0.028567544
0.025017509
0.021496328
0.018153721
0.015137484
0.012486962
0.010204595
0.008275303
0.0066612105
0.0053155508
0.0041942739
0.0032596314
0.0024802177
0.0018300565
0.0012876516
0.00083516775
0.00045778009
0.00014314428
0.043532729
0.043785364
0.044618501
0.046030127
0.047170543
0.046694981
0.044847584
0.042681398
0.040559891
0.038349159
0.035652159
0.032185477
0.028540094
0.024990608
0.021470617
0.018130609
0.015117558
0.012470268
0.010190941
0.0082643328
0.0066524844
0.0053086645
0.0041888894
0.0032554774
0.002477075
0.0018277479
0.001286033
0.00083412082
0.00045720769
0.00014296567
0.043515056
0.043766815
0.044595202
0.046001856
0.047146629
0.046678316
0.044830504
0.042660311
0.040535195
0.038322296
0.035624303
0.032157349
0.028512652
0.024963726
0.021444923
0.018107524
0.015097657
0.012453593
0.010177308
0.0082533773
0.0066437671
0.0053017849
0.0041835103
0.0032513268
0.0024739345
0.0018254412
0.0012844154
0.00083307462
0.00045663569
0.00014278719
0.043497447
0.043748324
0.044571918
0.045973565
0.04712265
0.04666162
0.04481345
0.042639211
0.040510504
0.038295445
0.035596469
0.032129238
0.02848522
0.024936863
0.021419249
0.018084467
0.015077785