/*--------------------------------*- C++ -*----------------------------------*\
| =========                 |                                                 |
| \\      /  F ield         | OpenFOAM: The Open Source CFD Toolbox           |
|  \\    /   O peration     | Version:  v2012                                 |
|   \\  /    A nd           | Website:  www.openfoam.com                      |
|    \\/     M anipulation  |                                                 |
\*---------------------------------------------------------------------------*/
FoamFile
{
    version     2.0;
    format      ascii;
    class       volScalarField;
    location    "700";
    object      nut;
}
// * * * * * * * * * * * * * * * * * * * * * * * * * * * * * * * * * * * * * //

dimensions      [0 2 -1 0 0 0 0];


internalField   nonuniform List<scalar> 
24000
(
2.8519639e-05
1.0444785e-05
7.5745606e-06
9.9466604e-06
1.2543024e-05
1.4084949e-05
1.4824062e-05
1.4753465e-05
1.4813053e-05
1.2936593e-05
8.1646058e-06
5.6883355e-06
5.3626219e-06
4.491168e-06
2.9352901e-06
1.907325e-06
1.1905775e-06
6.4441116e-07
2.7289154e-07
9.8899256e-08
3.1723447e-08
9.2275003e-09
2.4499534e-09
5.8645663e-10
1.2257668e-10
2.1139372e-11
2.7706656e-12
3.0483164e-13
1.1606024e-13
1.267178e-13
2.8587789e-05
1.0319504e-05
7.5174886e-06
9.9084875e-06
1.2496035e-05
1.4051359e-05
1.4801741e-05
1.4733503e-05
1.4787189e-05
1.2911512e-05
8.1484722e-06
5.6766099e-06
5.3504286e-06
4.4726822e-06
2.9233611e-06
1.8992734e-06
1.1849507e-06
6.4107876e-07
2.7130611e-07
9.8281083e-08
3.1516739e-08
9.1660343e-09
2.4334628e-09
5.8249437e-10
1.2174808e-10
2.0996265e-11
2.7514478e-12
3.0215234e-13
1.1456693e-13
1.2503839e-13
2.8657536e-05
1.0408373e-05
7.5271237e-06
9.8732288e-06
1.2453613e-05
1.3993678e-05
1.4737843e-05
1.4664947e-05
1.4719569e-05
1.2884301e-05
8.1305522e-06
5.6640972e-06
5.3378894e-06
4.4569539e-06
2.9124738e-06
1.8918771e-06
1.1797733e-06
6.3715967e-07
2.6935772e-07
9.750103e-08
3.1253239e-08
9.0876926e-09
2.412525e-09
5.7748269e-10
1.2070361e-10
2.0817385e-11
2.7289056e-12
3.0061951e-13
1.1475899e-13
1.253215e-13
2.8728454e-05
1.0439548e-05
7.5129332e-06
9.8384733e-06
1.2416198e-05
1.3949695e-05
1.4691745e-05
1.4619978e-05
1.4672926e-05
1.2856297e-05
8.1122646e-06
5.6516914e-06
5.3255954e-06
4.4396901e-06
2.9012668e-06
1.8847059e-06
1.1750336e-06
6.3404322e-07
2.6791112e-07
9.6949118e-08
3.1072053e-08
9.0346161e-09
2.3984402e-09
5.7412269e-10
1.2000434e-10
2.0697455e-11
2.7134679e-12
2.9918047e-13
1.1441988e-13
1.2496967e-13
2.8800152e-05
1.0467236e-05
7.4959915e-06
9.8039216e-06
1.2378701e-05
1.3906552e-05
1.4647327e-05
1.4576416e-05
1.4626819e-05
1.2827778e-05
8.0934604e-06
5.6391062e-06
5.3132938e-06
4.4230666e-06
2.8903427e-06
1.877607e-06
1.1702488e-06
6.3076055e-07
2.6635424e-07
9.6344795e-08
3.0871335e-08
8.9754075e-09
2.3826673e-09
5.7035203e-10
1.1921872e-10
2.0562682e-11
2.6961867e-12
2.9765546e-13
1.1414494e-13
1.2469769e-13
2.8872484e-05
1.0485175e-05
7.4756854e-06
9.7695533e-06
1.2341354e-05
1.3864499e-05
1.4604737e-05
1.4534704e-05
1.4582393e-05
1.2798918e-05
8.0743412e-06
5.6264287e-06
5.3010273e-06
4.4064407e-06
2.87938e-06
1.8704632e-06
1.1654344e-06
6.2747558e-07
2.647999e-07
9.5742571e-08
3.0671528e-08
8.9164938e-09
2.3669738e-09
5.6659984e-10
1.1843678e-10
2.0428493e-11
2.6789562e-12
2.9611121e-13
1.138424e-13
1.2439348e-13
2.8945334e-05
1.0497585e-05
7.4540338e-06
9.73534e-06
1.2304068e-05
1.3822873e-05
1.4562916e-05
1.4493712e-05
1.4538768e-05
1.2769838e-05
8.0550065e-06
5.6136895e-06
5.288792e-06
4.3898824e-06
2.868424e-06
1.8633015e-06
1.1606006e-06
6.2417142e-07
2.6323549e-07
9.5136166e-08
3.047026e-08
8.8571316e-09
2.3511573e-09
5.6281759e-10
1.1764847e-10
2.0293195e-11
2.6615777e-12
2.9454832e-13
1.1353096e-13
1.2407944e-13
2.9018629e-05
1.0506144e-05
7.4316585e-06
9.7012693e-06
1.2266854e-05
1.3781502e-05
1.4521502e-05
1.4453167e-05
1.4496126e-05
1.274062e-05
8.0355331e-06
5.6009211e-06
5.2765901e-06
4.3733757e-06
2.8574795e-06
1.8561339e-06
1.1557604e-06
6.2086271e-07
2.616693e-07
9.4529178e-08
3.0268805e-08
8.7977093e-09
2.3353226e-09
5.5903047e-10
1.1685904e-10
2.0157687e-11
2.6441666e-12
2.9297768e-13
1.1321322e-13
1.2375811e-13
2.9092318e-05
1.0512206e-05
7.4089497e-06
9.6673325e-06
1.2229721e-05
1.374029e-05
1.4480324e-05
1.4412904e-05
1.4453952e-05
1.2711315e-05
8.0159744e-06
5.5881511e-06
5.2644216e-06
4.3569265e-06
2.8465573e-06
1.8489717e-06
1.1509226e-06
6.1755644e-07
2.60105e-07
9.3923119e-08
3.0067689e-08
8.7383888e-09
2.3195145e-09
5.5524949e-10
1.1607085e-10
2.0022383e-11
2.6267779e-12
2.9140525e-13
1.1289131e-13
1.2343184e-13
2.916637e-05
1.0516632e-05
7.3860939e-06
9.6335242e-06
1.2192681e-05
1.3699199e-05
1.4439303e-05
1.4372831e-05
1.4412032e-05
1.2681959e-05
7.9963686e-06
5.5754112e-06
5.2522865e-06
4.3405372e-06
2.8356646e-06
1.8418217e-06
1.1460926e-06
6.1425728e-07
2.5854492e-07
9.3318913e-08
2.9867218e-08
8.6792594e-09
2.3037564e-09
5.5148017e-10
1.1528502e-10
1.9887476e-11
2.6094373e-12
2.8983432e-13
1.1256685e-13
1.2310237e-13
2.924076e-05
1.0520036e-05
7.3631919e-06
9.5998405e-06
1.2155731e-05
1.3658198e-05
1.4398387e-05
1.4332904e-05
1.4370284e-05
1.2652578e-05
7.9767426e-06
5.562753e-06
5.2401853e-06
4.3242114e-06
2.8248069e-06
1.8346889e-06
1.1412747e-06
6.1096881e-07
2.56991e-07
9.2717399e-08
2.9667696e-08
8.6204162e-09
2.288075e-09
5.4772921e-10
1.1450302e-10
1.9753222e-11
2.5921789e-12
2.8826846e-13
1.1224101e-13
1.2277094e-13
2.9315469e-05
1.0522804e-05
7.3404822e-06
9.5662791e-06
1.211887e-05
1.3617271e-05
1.4357535e-05
1.429309e-05
1.4328668e-05
1.2623191e-05
7.9571105e-06
5.5501204e-06
5.2281166e-06
4.3079507e-06
2.8139869e-06
1.8275763e-06
1.1364712e-06
6.0769303e-07
2.5544425e-07
9.2118971e-08
2.9469253e-08
8.5618973e-09
2.2724803e-09
5.4399888e-10
1.1372529e-10
1.9619699e-11
2.5750125e-12
2.867088e-13
1.1191425e-13
1.2243801e-13
2.9390481e-05
1.0525115e-05
7.3177652e-06
9.5328379e-06
1.2082103e-05
1.3576403e-05
1.4316734e-05
1.4253367e-05
1.4287158e-05
1.2593811e-05
7.9374863e-06
5.5375162e-06
5.2160801e-06
4.2917559e-06
2.8032069e-06
1.8204869e-06
1.1316843e-06
6.0443165e-07
2.5390556e-07
9.1524014e-08
2.9272025e-08
8.5037456e-09
2.2569843e-09
5.4029224e-10
1.1295251e-10
1.9487026e-11
2.5579547e-12
2.8515745e-13
1.1158758e-13
1.221047e-13
2.9465781e-05
1.0527031e-05
7.2950595e-06
9.4995158e-06
1.2045436e-05
1.3535599e-05
1.4275987e-05
1.4213733e-05
1.4245733e-05
1.2564451e-05
7.9178811e-06
5.5249503e-06
5.2040759e-06
4.2756262e-06
2.7924684e-06
1.8134215e-06
1.1269148e-06
6.0118545e-07
2.5237528e-07
9.0932631e-08
2.9076039e-08
8.4459667e-09
2.241588e-09
5.3660941e-10
1.1218469e-10
1.9355204e-11
2.5410053e-12
2.8361459e-13
1.112612e-13
1.2177119e-13
2.9541353e-05
1.0528618e-05
7.272388e-06
9.4663123e-06
1.2008872e-05
1.3494853e-05
1.4235283e-05
1.4174176e-05
1.4204392e-05
1.2535117e-05
7.8983043e-06
5.5124354e-06
5.1921044e-06
4.2595631e-06
2.781773e-06
1.8063817e-06
1.1221641e-06
5.9795547e-07
2.5085401e-07
9.0345098e-08
2.88814e-08
8.3885953e-09
2.2263015e-09
5.3295296e-10
1.1142238e-10
1.9224333e-11
2.5241783e-12
2.8208171e-13
1.1093561e-13
1.2143799e-13
2.961718e-05
1.0529977e-05
7.2497591e-06
9.4332271e-06
1.1972404e-05
1.3454153e-05
1.4194604e-05
1.4134688e-05
1.4163142e-05
1.2505817e-05
7.8787628e-06
5.4999857e-06
5.1801657e-06
4.2435663e-06
2.7711204e-06
1.7993679e-06
1.1174324e-06
5.9474202e-07
2.4934185e-07
8.9761439e-08
2.8688111e-08
8.3316302e-09
2.211124e-09
5.2932262e-10
1.1066553e-10
1.90944e-11
2.5074714e-12
2.8055856e-13
1.1061071e-13
1.2110498e-13
2.9693247e-05
1.0531165e-05
7.227182e-06
9.4002605e-06
1.1936038e-05
1.3413504e-05
1.4153954e-05
1.4095263e-05
1.4121978e-05
1.2476556e-05
7.8592606e-06
5.4876047e-06
5.1682592e-06
4.2276352e-06
2.7605114e-06
1.7923812e-06
1.1127206e-06
5.9154563e-07
2.4783909e-07
8.9181785e-08
2.849622e-08
8.2750879e-09
2.1960604e-09
5.2571971e-10
1.0991441e-10
1.8965456e-11
2.4908923e-12
2.7904621e-13
1.1028707e-13
1.2077273e-13
2.9769536e-05
1.0532145e-05
7.2046625e-06
9.3674124e-06
1.189978e-05
1.3372908e-05
1.4113348e-05
1.4055912e-05
1.4080895e-05
1.2447339e-05
7.8397983e-06
5.4752632e-06
5.1563835e-06
4.2117689e-06
2.749946e-06
1.785421e-06
1.1080283e-06
5.8836608e-07
2.4634553e-07
8.8606025e-08
2.8305679e-08
8.2189512e-09
2.1811056e-09
5.2214282e-10
1.0916873e-10
1.8837447e-11
2.4744334e-12
2.7754398e-13
1.0996454e-13
1.2044108e-13
2.9846028e-05
1.0532868e-05
7.1822039e-06
9.3346834e-06
1.1863636e-05
1.3332366e-05
1.4072782e-05
1.4016641e-05
1.4039901e-05
1.2418169e-05
7.8203801e-06
5.4629673e-06
5.1445387e-06
4.1959682e-06
2.7394244e-06
1.7784878e-06
1.1033561e-06
5.8520381e-07
2.4486151e-07
8.8034314e-08
2.8116552e-08
8.1632417e-09
2.1662659e-09
5.1859368e-10
1.0842886e-10
1.8710443e-11
2.4581044e-12
2.7605287e-13
1.0964342e-13
1.2011031e-13
2.9922704e-05
1.0533357e-05
7.1598142e-06
9.3020745e-06
1.1827598e-05
1.3291862e-05
1.4032245e-05
1.3977437e-05
1.3998997e-05
1.2389049e-05
7.8010103e-06
5.4507247e-06
5.1327253e-06
4.1802326e-06
2.7289456e-06
1.7715813e-06
1.0987036e-06
5.820587e-07
2.4338687e-07
8.7466576e-08
2.7928805e-08
8.1079478e-09
2.1515379e-09
5.1507134e-10
1.0769459e-10
1.8584406e-11
2.4419002e-12
2.7457233e-13
1.0932354e-13
1.197802e-13
2.9999542e-05
1.0533681e-05
7.1375026e-06
9.2695865e-06
1.1791662e-05
1.3251389e-05
1.3991749e-05
1.3938299e-05
1.3958176e-05
1.2359983e-05
7.7816925e-06
5.4385419e-06
5.1209435e-06
4.1645609e-06
2.7185102e-06
1.7647021e-06
1.0940714e-06
5.7893101e-07
2.419218e-07
8.69029e-08
2.7742476e-08
8.0530831e-09
2.1369258e-09
5.1157692e-10
1.069662e-10
1.8459385e-11
2.4258279e-12
2.7310337e-13
1.0900539e-13
1.1945125e-13
3.007652e-05
1.0533852e-05
7.1152805e-06
9.2372205e-06
1.1755831e-05
1.3210955e-05
1.3951295e-05
1.3899231e-05
1.3917432e-05
1.2330972e-05
7.762428e-06
5.4264193e-06
5.1091924e-06
4.1489525e-06
2.7081182e-06
1.7578494e-06
1.0894586e-06
5.7582022e-07
2.4046596e-07
8.6343118e-08
2.7557496e-08
7.9986243e-09
2.1224226e-09
5.0810864e-10
1.0624326e-10
1.8335309e-11
2.409878e-12
2.7164512e-13
1.086888e-13
1.1912326e-13
3.0153617e-05
1.0533798e-05
7.0931562e-06
9.2049778e-06
1.1720079e-05
1.3170557e-05
1.3910889e-05
1.3860232e-05
1.3876776e-05
1.2302021e-05
7.7432173e-06
5.4143463e-06
5.097471e-06
4.1334077e-06
2.6977692e-06
1.7510236e-06
1.0848659e-06
5.7272679e-07
2.3901963e-07
8.578738e-08
2.7373928e-08
7.9445922e-09
2.1080346e-09
5.0466814e-10
1.0552617e-10
1.8212243e-11
2.3940595e-12
2.7019847e-13
1.0837398e-13
1.1879642e-13
3.0230807e-05
1.0533462e-05
7.0711364e-06
9.1728598e-06
1.1684385e-05
1.3130222e-05
1.3870539e-05
1.3821303e-05
1.3836208e-05
1.2273131e-05
7.7240625e-06
5.4023202e-06
5.0857791e-06
4.117926e-06
2.6874625e-06
1.7442245e-06
1.0802927e-06
5.6965033e-07
2.3758257e-07
8.5235548e-08
2.7191715e-08
7.8909679e-09
2.0937562e-09
5.0125398e-10
1.0481458e-10
1.8090131e-11
2.3783647e-12
2.6876248e-13
1.0806052e-13
1.1847024e-13
3.0308065e-05
1.0532887e-05
7.0492281e-06
9.1408688e-06
1.1648746e-05
1.3089953e-05
1.383026e-05
1.3782446e-05
1.379572e-05
1.2244304e-05
7.7049662e-06
5.3903458e-06
5.074117e-06
4.1025064e-06
2.6771985e-06
1.7374526e-06
1.0757397e-06
5.6659102e-07
2.3615486e-07
8.4687671e-08
2.701088e-08
7.8377604e-09
2.0795904e-09
4.9786696e-10
1.041087e-10
1.7969009e-11
2.3627989e-12
2.6733803e-13
1.0774896e-13
1.1814529e-13
3.0385366e-05
1.0532153e-05
7.0274405e-06
9.1090066e-06
1.1613159e-05
1.3049748e-05
1.3790046e-05
1.3743654e-05
1.3755313e-05
1.2215543e-05
7.6859299e-06
5.3784261e-06
5.0624845e-06
4.0871481e-06
2.666977e-06
1.7307069e-06
1.0712062e-06
5.6354843e-07
2.3473619e-07
8.4143586e-08
2.6831355e-08
7.7849465e-09
2.0655302e-09
4.9450531e-10
1.0340814e-10
1.7848805e-11
2.3473526e-12
2.6592433e-13
1.0743923e-13
1.1782148e-13
3.0462683e-05
1.053127e-05
7.0057848e-06
9.0772754e-06
1.1577623e-05
1.3009608e-05
1.3749888e-05
1.3704934e-05
1.3714998e-05
1.2186849e-05
7.6669546e-06
5.3665605e-06
5.0508808e-06
4.0718503e-06
2.6567971e-06
1.7239878e-06
1.0666928e-06
5.605232e-07
2.33327e-07
8.360351e-08
2.6653225e-08
7.7325539e-09
2.0515837e-09
4.911711e-10
1.0271334e-10
1.7729603e-11
2.3320371e-12
2.6452244e-13
1.0713156e-13
1.1749901e-13
3.0539988e-05
1.0530174e-05
6.984271e-06
9.0456775e-06
1.1542147e-05
1.2969535e-05
1.3709803e-05
1.36663e-05
1.3674774e-05
1.2158224e-05
7.6480402e-06
5.3547439e-06
5.0393048e-06
4.0566128e-06
2.6466575e-06
1.7172944e-06
1.0621985e-06
5.5751473e-07
2.3192693e-07
8.3067269e-08
2.6476424e-08
7.6805612e-09
2.0377447e-09
4.8786272e-10
1.0202397e-10
1.7611341e-11
2.3168439e-12
2.6313131e-13
1.0682542e-13
1.1717728e-13
3.0617253e-05
1.0528826e-05
6.9629069e-06
9.0142152e-06
1.1506738e-05
1.292954e-05
1.36698e-05
1.3627751e-05
1.3634635e-05
1.2129669e-05
7.6291868e-06
5.3429723e-06
5.0277562e-06
4.0414348e-06
2.636559e-06
1.7106267e-06
1.0577233e-06
5.5452283e-07
2.3053592e-07
8.2534866e-08
2.630096e-08
7.6289732e-09
2.0240152e-09
4.845808e-10
1.0134016e-10
1.7494049e-11
2.3017777e-12
2.6175169e-13
1.0652128e-13
1.1685677e-13
3.0694448e-05
1.0527276e-05
6.941702e-06
8.9828913e-06
1.1471392e-05
1.2889612e-05
1.3629862e-05
1.3589275e-05
1.3594584e-05
1.2101186e-05
7.6103964e-06
5.3312484e-06
5.0162348e-06
4.0263158e-06
2.6265007e-06
1.7039837e-06
1.0532665e-06
5.5154683e-07
2.2915353e-07
8.2006077e-08
2.6126745e-08
7.5777606e-09
2.0103865e-09
4.8132313e-10
1.0066145e-10
1.7377639e-11
2.286827e-12
2.6038259e-13
1.0621898e-13
1.1653728e-13
3.0771544e-05
1.0525605e-05
6.9206695e-06
8.9517084e-06
1.1436104e-05
1.284975e-05
1.3589987e-05
1.3550868e-05
1.3554621e-05
1.2072777e-05
7.5916705e-06
5.3195737e-06
5.0047401e-06
4.011255e-06
2.6164821e-06
1.6973659e-06
1.0488286e-06
5.4858734e-07
2.2778015e-07
8.1481094e-08
2.5953856e-08
7.5269488e-09
1.9968661e-09
4.7809162e-10
9.9988242e-11
1.7262188e-11
2.272002e-12
2.5902496e-13
1.0591874e-13
1.1621904e-13
3.084851e-05
1.0523822e-05
6.8998225e-06
8.9206694e-06
1.1400877e-05
1.2809962e-05
1.3550189e-05
1.3512537e-05
1.3514739e-05
1.2044442e-05
7.5730091e-06
5.3079469e-06
4.9932712e-06
3.9962515e-06
2.6065024e-06
1.6907729e-06
1.0444091e-06
5.4564385e-07
2.2641545e-07
8.0959757e-08
2.5782228e-08
7.4765166e-09
1.9834479e-09
4.7488469e-10
9.9320195e-11
1.7147632e-11
2.2572938e-12
2.5767773e-13
1.0562008e-13
1.159015e-13
3.0925316e-05
1.0521865e-05
6.8791737e-06
8.8897771e-06
1.1365718e-05
1.2770245e-05
1.3510463e-05
1.347428e-05
1.3474941e-05
1.2016183e-05
7.5544124e-06
5.2963644e-06
4.9818272e-06
3.9813048e-06
2.5965625e-06
1.6842052e-06
1.0400084e-06
5.4271651e-07
2.2505953e-07
8.0442133e-08
2.5611892e-08
7.4264751e-09
1.9701352e-09
4.7170329e-10
9.865753e-11
1.7034013e-11
2.2427085e-12
2.5634185e-13
1.0532358e-13
1.1558529e-13
3.100193e-05
1.0519698e-05
6.8587332e-06
8.8590347e-06
1.1330629e-05
1.2730602e-05
1.34708e-05
1.3436094e-05
1.3435231e-05
1.1988001e-05
7.5358809e-06
5.2848233e-06
4.9704074e-06
3.9664142e-06
2.5866612e-06
1.6776613e-06
1.0356257e-06
5.3980471e-07
2.23712e-07
7.9928004e-08
2.5442761e-08
7.376795e-09
1.9569195e-09
4.6854518e-10
9.799975e-11
1.6921243e-11
2.2282345e-12
2.550163e-13
1.0502907e-13
1.1527018e-13
3.107832e-05
1.0517372e-05
6.8385132e-06
8.8284456e-06
1.1295613e-05
1.269103e-05
1.3431204e-05
1.3397979e-05
1.3395607e-05
1.1959899e-05
7.5174158e-06
5.2733248e-06
4.9590112e-06
3.9515788e-06
2.5767976e-06
1.671142e-06
1.0312617e-06
5.3690924e-07
2.2237334e-07
7.9417613e-08
2.5274928e-08
7.3275071e-09
1.9438098e-09
4.6541267e-10
9.7347367e-11
1.6809413e-11
2.2138841e-12
2.5370224e-13
1.0473683e-13
1.1495649e-13
3.1154453e-05
1.051498e-05
6.8185303e-06
8.7980131e-06
1.1260666e-05
1.2651535e-05
1.3391685e-05
1.3359945e-05
1.3356065e-05
1.1931877e-05
7.499017e-06
5.2618686e-06
4.9476379e-06
3.936797e-06
2.5669706e-06
1.6646461e-06
1.0269152e-06
5.340294e-07
2.2104315e-07
7.8910766e-08
2.510832e-08
7.278587e-09
1.930799e-09
4.6230398e-10
9.6699987e-11
1.6698452e-11
2.1996474e-12
2.523984e-13
1.0444622e-13
1.1464348e-13
3.1230299e-05
1.051254e-05
6.7987997e-06
8.7677408e-06
1.1225789e-05
1.2612118e-05
1.3352236e-05
1.3321997e-05
1.331661e-05
1.1903935e-05
7.4806838e-06
5.2504529e-06
4.9362864e-06
3.9220687e-06
2.5571813e-06
1.6581736e-06
1.0225864e-06
5.3116497e-07
2.1972138e-07
7.8407484e-08
2.4942952e-08
7.2300428e-09
1.91789e-09
4.592199e-10
9.60578e-11
1.6588398e-11
2.18553e-12
2.5110565e-13
1.0415774e-13
1.1433171e-13
3.1305825e-05
1.0509997e-05
6.7793374e-06
8.7376319e-06
1.1190989e-05
1.2572774e-05
1.3312857e-05
1.3284128e-05
1.3277241e-05
1.1876073e-05
7.4624159e-06
5.2390749e-06
4.9249557e-06
3.9073937e-06
2.5474278e-06
1.6517233e-06
1.0182741e-06
5.2831503e-07
2.1840744e-07
7.790747e-08
2.4778711e-08
7.1818365e-09
1.9050716e-09
4.5615762e-10
9.5420189e-11
1.6479138e-11
2.1715172e-12
2.4982258e-13
1.0387108e-13
1.1402082e-13
3.1380998e-05
1.0507306e-05
6.7601543e-06
8.7076905e-06
1.1156272e-05
1.2533514e-05
1.3273557e-05
1.3246334e-05
1.3237949e-05
1.1848294e-05
7.4442135e-06
5.2277328e-06
4.9136448e-06
3.892771e-06
2.5377099e-06
1.6452959e-06
1.0139794e-06
5.2548041e-07
2.1710184e-07
7.7410974e-08
2.4615693e-08
7.1339995e-09
1.892353e-09
4.5311949e-10
9.4787669e-11
1.6370766e-11
2.157621e-12
2.485504e-13
1.0358659e-13
1.137112e-13
3.1455785e-05
1.0504503e-05
6.7412656e-06
8.6779202e-06
1.1121612e-05
1.2494348e-05
1.3234347e-05
1.3208612e-05
1.3198737e-05
1.1820596e-05
7.4260772e-06
5.2164265e-06
4.9023529e-06
3.8781984e-06
2.5280266e-06
1.6388908e-06
1.0097014e-06
5.2266072e-07
2.1580429e-07
7.6917835e-08
2.4453832e-08
7.0865103e-09
1.8797279e-09
4.5010383e-10
9.4159869e-11
1.6263213e-11
2.143832e-12
2.4728794e-13
1.0330375e-13
1.1340228e-13
3.1530154e-05
1.0501682e-05
6.7226897e-06
8.6483251e-06
1.1087003e-05
1.245527e-05
1.3195217e-05
1.3170958e-05
1.3159606e-05
1.1792983e-05
7.4080073e-06
5.2051551e-06
4.8910792e-06
3.8636756e-06
2.5183791e-06
1.6325084e-06
1.0054407e-06
5.1985614e-07
2.1451497e-07
7.6428168e-08
2.4293178e-08
7.0393864e-09
1.8672016e-09
4.4711209e-10
9.353712e-11
1.6156542e-11
2.1301593e-12
2.4603649e-13
1.0302325e-13
1.1309481e-13
3.1604073e-05
1.0498892e-05
6.7044439e-06
8.6189092e-06
1.1052447e-05
1.2416288e-05
1.3156175e-05
1.3133371e-05
1.3120551e-05
1.1765453e-05
7.3900035e-06
5.1939168e-06
4.8798225e-06
3.8492025e-06
2.5087653e-06
1.626147e-06
1.0011962e-06
5.1706577e-07
2.1323332e-07
7.5941694e-08
2.4133623e-08
6.9925913e-09
1.8547636e-09
4.4414156e-10
9.2918822e-11
1.6050646e-11
2.1165883e-12
2.4479464e-13
1.0274475e-13
1.1278841e-13
3.1677512e-05
1.0496093e-05
6.686547e-06
8.5896764e-06
1.1017947e-05
1.2377399e-05
1.3117222e-05
1.3095855e-05
1.308157e-05
1.1738009e-05
7.3720651e-06
5.1827094e-06
4.8685815e-06
3.8347781e-06
2.4991847e-06
1.6198073e-06
9.9696829e-07
5.142903e-07
2.1195981e-07
7.5458654e-08
2.397526e-08
6.9461568e-09
1.8424231e-09
4.4119459e-10
9.2305491e-11
1.5945614e-11
2.1031312e-12
2.4356344e-13
1.0246841e-13
1.1248327e-13
3.1750438e-05
1.0493232e-05
6.669011e-06
8.5606311e-06
1.0983514e-05
1.2338609e-05
1.3078356e-05
1.305842e-05
1.3042667e-05
1.1710649e-05
7.3541911e-06
5.171531e-06
4.8573549e-06
3.8204001e-06
2.489636e-06
1.613488e-06
9.9275581e-07
5.1152892e-07
2.1069392e-07
7.4978795e-08
2.3817993e-08
6.9000509e-09
1.8301707e-09
4.3826881e-10
9.1696605e-11
1.5841355e-11
2.089775e-12
2.4234129e-13
1.0219348e-13
1.121786e-13
3.182282e-05
1.0490334e-05
6.6518526e-06
8.5317776e-06
1.0949148e-05
1.2299914e-05
1.3039578e-05
1.3021058e-05
1.3003839e-05
1.1683374e-05
7.336381e-06
5.1603803e-06
4.8461416e-06
3.8060682e-06
2.4801205e-06
1.6071894e-06
9.8855925e-07
5.0878169e-07
2.0943574e-07
7.4502184e-08
2.3661855e-08
6.8542866e-09
1.8180108e-09
4.3536541e-10
9.1092443e-11
1.5737919e-11
2.0765274e-12
2.4112941e-13
1.0192074e-13
1.1187523e-13
3.1894628e-05
1.0487493e-05
6.6350875e-06
8.5031205e-06
1.0914848e-05
1.2261316e-05
1.300089e-05
1.2983763e-05
1.2965076e-05
1.1656183e-05
7.3186342e-06
5.149256e-06
4.8349408e-06
3.7917826e-06
2.470636e-06
1.6009101e-06
9.8437759e-07
5.0604772e-07
2.0818472e-07
7.4028552e-08
2.3506742e-08
6.8088287e-09
1.805933e-09
4.3248174e-10
9.0492419e-11
1.5635202e-11
2.0633743e-12
2.3992646e-13
1.0164986e-13
1.1157284e-13
3.1965835e-05
1.0484793e-05
6.6187351e-06
8.4746644e-06
1.0880608e-05
1.2222813e-05
1.2962286e-05
1.2946535e-05
1.2926384e-05
1.1629077e-05
7.3009502e-06
5.1381564e-06
4.8237511e-06
3.777542e-06
2.4611822e-06
1.5946511e-06
9.8021169e-07
5.0332789e-07
2.0694142e-07
7.3558174e-08
2.3352757e-08
6.7637121e-09
1.7939474e-09
4.2962036e-10
8.9897091e-11
1.5533303e-11
2.0503286e-12
2.3873362e-13
1.0138113e-13
1.1127172e-13
3.203641e-05
1.0482234e-05
6.6028155e-06
8.4464139e-06
1.0846432e-05
1.21844e-05
1.2923764e-05
1.2909372e-05
1.2887764e-05
1.1602057e-05
7.2833284e-06
5.1270796e-06
4.8125711e-06
3.7633438e-06
2.4517578e-06
1.5884111e-06
9.7606044e-07
5.0062157e-07
2.0570545e-07
7.3090853e-08
2.3199825e-08
6.7189109e-09
1.7820466e-09
4.2677932e-10
8.9306033e-11
1.5432144e-11
2.0373797e-12
2.3754953e-13
1.0111389e-13
1.1097121e-13
3.2106327e-05
1.0479759e-05
6.5873423e-06
8.4183737e-06
1.0812327e-05
1.2146088e-05
1.288533e-05
1.287227e-05
1.2849207e-05
1.1575121e-05
7.2657681e-06
5.1160238e-06
4.8013995e-06
3.7491881e-06
2.4423641e-06
1.5821904e-06
9.7192431e-07
4.9792892e-07
2.0447694e-07
7.2626682e-08
2.3047988e-08
6.6744412e-09
1.7702354e-09
4.2396e-10
8.8719557e-11
1.5331784e-11
2.0245359e-12
2.3637543e-13
1.0084886e-13
1.1067208e-13
3.217556e-05
1.0477364e-05
6.5723331e-06
8.3905487e-06
1.0778299e-05
1.2107871e-05
1.2846979e-05
1.2835233e-05
1.2810713e-05
1.1548271e-05
7.2482681e-06
5.1049872e-06
4.7902354e-06
3.7350751e-06
2.4329987e-06
1.5759874e-06
9.6780199e-07
4.9524888e-07
2.0325526e-07
7.2165349e-08
2.2897126e-08
6.6302632e-09
1.7585024e-09
4.2115942e-10
8.8137008e-11
1.5232106e-11
2.0117815e-12
2.3520973e-13
1.0058559e-13
1.1037387e-13
3.2244083e-05
1.0475124e-05
6.5578022e-06
8.362944e-06
1.0744346e-05
1.206975e-05
1.2808709e-05
1.2798262e-05
1.2772284e-05
1.1521506e-05
7.2308273e-06
5.0939683e-06
4.7790779e-06
3.7210036e-06
2.4236612e-06
1.5698028e-06
9.6369416e-07
4.9258214e-07
2.0204086e-07
7.1707082e-08
2.2747328e-08
6.5864064e-09
1.7468561e-09
4.1837979e-10
8.7558869e-11
1.5133195e-11
1.9991277e-12
2.3405347e-13
1.0032429e-13
1.1007684e-13
3.2311873e-05
1.0473152e-05
6.5437692e-06
8.3355645e-06
1.0710465e-05
1.2031727e-05
1.2770524e-05
1.2761351e-05
1.2733912e-05
1.1494825e-05
7.2134444e-06
5.0829651e-06
4.7679259e-06
3.70697e-06
2.4143504e-06
1.5636354e-06
9.5959973e-07
4.8992801e-07
2.0083331e-07
7.1251677e-08
2.2598514e-08
6.5428443e-09
1.7352888e-09
4.1561914e-10
8.6984704e-11
1.5034972e-11
1.9865637e-12
2.3290531e-13
1.0006438e-13
1.0978038e-13
3.2378907e-05
1.0471504e-05
6.5302527e-06
8.3084155e-06
1.0676657e-05
1.1993797e-05
1.2732419e-05
1.2724497e-05
1.2695596e-05
1.1468228e-05
7.1961181e-06
5.0719757e-06
4.7567779e-06
3.6929734e-06
2.4050671e-06
1.5574854e-06
9.5551916e-07
4.8728666e-07
1.9963279e-07
7.0799236e-08
2.245073e-08
6.4995935e-09
1.7238058e-09
4.1287884e-10
8.6414825e-11
1.4937494e-11
1.9740975e-12
2.3176642e-13
9.980652e-14
1.0948523e-13
3.2445166e-05
1.0470144e-05
6.5172699e-06
8.2815017e-06
1.0642926e-05
1.1955963e-05
1.2694394e-05
1.2687702e-05
1.265734e-05
1.1441715e-05
7.1788475e-06
5.0609981e-06
4.7456327e-06
3.6790137e-06
2.3958092e-06
1.5513514e-06
9.5145131e-07
4.8465722e-07
1.9843873e-07
7.0349483e-08
2.2303869e-08
6.4566186e-09
1.7123965e-09
4.1015625e-10
8.5848656e-11
1.4840659e-11
1.9617154e-12
2.3063546e-13
9.9550369e-14
1.0919102e-13
3.2510629e-05
1.0469026e-05
6.5048376e-06
8.2548286e-06
1.0609279e-05
1.1918227e-05
1.2656451e-05
1.2650964e-05
1.2619139e-05
1.1415285e-05
7.1616315e-06
5.0500304e-06
4.7344889e-06
3.6650897e-06
2.3865762e-06
1.5452341e-06
9.4739695e-07
4.8204043e-07
1.9725161e-07
6.9902659e-08
2.2158023e-08
6.4139508e-09
1.7010703e-09
4.074537e-10
8.5286705e-11
1.4744556e-11
1.9494291e-12
2.2951348e-13
9.9296152e-14
1.0889804e-13
3.2575279e-05
1.0468173e-05
6.4929682e-06
8.2284014e-06
1.0575721e-05
1.1880591e-05
1.2618593e-05
1.2614287e-05
1.258099e-05
1.1388938e-05
7.1444684e-06
5.0390707e-06
4.723345e-06
3.6511988e-06
2.3773667e-06
1.5391321e-06
9.4335484e-07
4.7943553e-07
1.9607099e-07
6.9458553e-08
2.2013115e-08
6.3715639e-09
1.6898194e-09
4.0476922e-10
8.4728537e-11
1.4649108e-11
1.9372277e-12
2.2839903e-13
9.9043166e-14
1.0860556e-13
3.2639099e-05
1.0467684e-05
6.4816806e-06
8.2022255e-06
1.0542246e-05
1.1843053e-05
1.2580814e-05
1.2577667e-05
1.2542896e-05
1.1362673e-05
7.1273565e-06
5.0281168e-06
4.7121993e-06
3.6373403e-06
2.3681817e-06
1.5330455e-06
9.3932522e-07
4.7684249e-07
1.9489694e-07
6.9017224e-08
2.1869173e-08
6.3294687e-09
1.6786473e-09
4.0210378e-10
8.4174373e-11
1.4554354e-11
1.9251173e-12
2.2729312e-13
9.8792043e-14
1.0831428e-13
3.2702077e-05
1.0467674e-05
6.4709904e-06
8.1763065e-06
1.0508857e-05
1.180561e-05
1.2543111e-05
1.2541097e-05
1.2504849e-05
1.1336491e-05
7.1102941e-06
5.0171666e-06
4.7010502e-06
3.623514e-06
2.359019e-06
1.5269729e-06
9.3530692e-07
4.7426041e-07
1.9372888e-07
6.8578398e-08
2.1726089e-08
6.2876304e-09
1.667544e-09
3.9945481e-10
8.3623653e-11
1.4460197e-11
1.9130845e-12
2.2619453e-13
9.8542528e-14
1.0802395e-13
3.2764201e-05
1.046818e-05
6.460916e-06
8.1506493e-06
1.0475548e-05
1.1768266e-05
1.2505492e-05
1.250458e-05
1.2466848e-05
1.1310389e-05
7.09328e-06
5.006218e-06
4.6898966e-06
3.6097186e-06
2.349878e-06
1.5209149e-06
9.3130083e-07
4.7169012e-07
1.9256733e-07
6.8142318e-08
2.1583958e-08
6.2460796e-09
1.6565182e-09
3.9682456e-10
8.3076863e-11
1.436672e-11
1.9011406e-12
2.2510425e-13
9.8294818e-14
1.0773481e-13
3.2825461e-05
1.0469161e-05
6.4514715e-06
8.1252597e-06
1.044233e-05
1.1731019e-05
1.2467949e-05
1.2468114e-05
1.2428897e-05
1.1284368e-05
7.0763126e-06
4.9952692e-06
4.678737e-06
3.5959515e-06
2.3407575e-06
1.5148705e-06
9.273059e-07
4.6913101e-07
1.9141192e-07
6.7708806e-08
2.1442711e-08
6.2047932e-09
1.6455633e-09
3.942113e-10
8.2533622e-11
1.4273855e-11
1.889276e-12
2.2402105e-13
9.8048336e-14
1.0744629e-13
3.2885849e-05
1.0470587e-05
6.4426703e-06
8.1001427e-06
1.0409211e-05
1.1693872e-05
1.2430484e-05
1.2431701e-05
1.2390993e-05
1.1258429e-05
7.0593904e-06
4.984318e-06
4.6675696e-06
3.5822118e-06
2.3316582e-06
1.5088396e-06
9.2332223e-07
4.6658302e-07
1.902627e-07
6.7277919e-08
2.1302377e-08
6.1637829e-09
1.6346829e-09
3.9161602e-10
8.199416e-11
1.4181644e-11
1.8774967e-12
2.2294581e-13
9.7803588e-14
1.0715894e-13
3.294536e-05
1.0472501e-05
6.4345282e-06
8.0753041e-06
1.0376186e-05
1.1656829e-05
1.2393104e-05
1.2395341e-05
1.2353132e-05
1.1232569e-05
7.0425113e-06
4.9733622e-06
4.6563929e-06
3.5684994e-06
2.3225781e-06
1.5028206e-06
9.1934855e-07
4.6404517e-07
1.8911909e-07
6.6849378e-08
2.1162851e-08
6.1230146e-09
1.6238674e-09
3.8903626e-10
8.145794e-11
1.4089993e-11
1.8657898e-12
2.2187729e-13
9.7560253e-14
1.0687245e-13
3.300399e-05
1.0475005e-05
6.4270563e-06
8.0507495e-06
1.0343262e-05
1.1619884e-05
1.2355801e-05
1.2359035e-05
1.2315317e-05
1.1206789e-05
7.0256734e-06
4.9623998e-06
4.6452055e-06
3.5548133e-06
2.3135166e-06
1.4968141e-06
9.1538567e-07
4.6151817e-07
1.8798153e-07
6.64234e-08
2.1024215e-08
6.0825146e-09
1.6131242e-09
3.8647394e-10
8.0925376e-11
1.3998973e-11
1.8541651e-12
2.2081633e-13
9.7318529e-14
1.0658706e-13
3.3061738e-05
1.0478215e-05
6.4202735e-06
8.026484e-06
1.031043e-05
1.1583041e-05
1.2318578e-05
1.2322782e-05
1.2277548e-05
1.1181088e-05
7.008875e-06
4.9514285e-06
4.6340061e-06
3.5411509e-06
2.3044724e-06
1.4908193e-06
9.1143266e-07
4.5900146e-07
1.8684965e-07
6.5999809e-08
2.0886401e-08
6.042261e-09
1.602447e-09
3.839274e-10
8.0396107e-11
1.3908521e-11
1.8426132e-12
2.1976178e-13
9.7077875e-14
1.0630223e-13
3.3118608e-05
1.0482165e-05
6.4141909e-06
8.0025134e-06
1.0277692e-05
1.15463e-05
1.228144e-05
1.2286579e-05
1.2239822e-05
1.1155466e-05
6.9921144e-06
4.940446e-06
4.6227928e-06
3.5275115e-06
2.2954464e-06
1.4848361e-06
9.074897e-07
4.5649504e-07
1.8572355e-07
6.5578669e-08
2.0749438e-08
6.0022647e-09
1.5918392e-09
3.8139761e-10
7.987035e-11
1.3818675e-11
1.8311402e-12
2.1871458e-13
9.6838865e-14
1.0601859e-13
3.3174603e-05
1.0486818e-05
6.4088226e-06
7.9788426e-06
1.0245059e-05
1.1509659e-05
1.2244379e-05
1.2250424e-05
1.2202139e-05
1.1129924e-05
6.9753897e-06
4.9294501e-06
4.6115642e-06
3.5138947e-06
2.2864366e-06
1.4788629e-06
9.0355548e-07
4.5399794e-07
1.8460264e-07
6.5159714e-08
2.0613229e-08
5.9624934e-09
1.5812917e-09
3.7888224e-10
7.9347596e-11
1.3729346e-11
1.819734e-12
2.1767363e-13
9.6601252e-14
1.0573589e-13
3.322973e-05
1.0492163e-05
6.4041788e-06
7.9554774e-06
1.0212531e-05
1.1473126e-05
1.22074e-05
1.2214321e-05
1.21645e-05
1.1104461e-05
6.9586994e-06
4.9184388e-06
4.6003191e-06
3.5002999e-06
2.2774426e-06
1.4729004e-06
8.9963086e-07
4.5151095e-07
1.8348743e-07
6.4743172e-08
2.0477858e-08
5.9229753e-09
1.5708124e-09
3.763833e-10
7.8828286e-11
1.3640611e-11
1.8084049e-12
2.1663978e-13
9.6365184e-14
1.0545435e-13
3.3283998e-05
1.0498242e-05
6.4002667e-06
7.9324233e-06
1.0180114e-05
1.1436697e-05
1.2170508e-05
1.2178272e-05
1.2126905e-05
1.1079077e-05
6.9420415e-06
4.9074098e-06
4.5890561e-06
3.4867249e-06
2.268463e-06
1.4669476e-06
8.9571486e-07
4.4903344e-07
1.8237752e-07
6.4328862e-08
2.0343257e-08
5.8836876e-09
1.5603947e-09
3.7389907e-10
7.8312036e-11
1.35524e-11
1.7971428e-12
2.1561171e-13
9.6130002e-14
1.0517329e-13
3.3337419e-05
1.0505157e-05
6.3971025e-06
7.9096853e-06
1.0147803e-05
1.1400374e-05
1.2133695e-05
1.2142277e-05
1.2089356e-05
1.1053775e-05
6.9254143e-06
4.8963607e-06
4.5777737e-06
3.4731687e-06
2.2594989e-06
1.4610047e-06
8.9180772e-07
4.4656547e-07
1.8127299e-07
6.3916844e-08
2.0209453e-08
5.8446406e-09
1.5500419e-09
3.7143049e-10
7.7799062e-11
1.3464753e-11
1.7859536e-12
2.1459034e-13
9.5896273e-14
1.0489335e-13
3.3390008e-05
1.0513022e-05
6.3946923e-06
7.8872693e-06
1.0115599e-05
1.1364156e-05
1.2096967e-05
1.2106336e-05
1.2051853e-05
1.1028553e-05
6.9088159e-06
4.8852887e-06
4.5664704e-06
3.4596314e-06
2.2505484e-06
1.4550701e-06
8.8790814e-07
4.4410601e-07
1.8017324e-07
6.3506843e-08
2.0076344e-08
5.8058014e-09
1.5397447e-09
3.6897515e-10
7.7288843e-11
1.3377579e-11