/*--------------------------------*- C++ -*----------------------------------*\
| =========                 |                                                 |
| \\      /  F ield         | OpenFOAM: The Open Source CFD Toolbox           |
|  \\    /   O peration     | Version:  v2012                                 |
|   \\  /    A nd           | Website:  www.openfoam.com                      |
|    \\/     M anipulation  |                                                 |
\*---------------------------------------------------------------------------*/
FoamFile
{
    version     2.0;
    format      ascii;
    class       volScalarField;
    location    "700";
    object      omega;
}
// * * * * * * * * * * * * * * * * * * * * * * * * * * * * * * * * * * * * * //

dimensions      [0 0 -1 0 0 0 0];


internalField   nonuniform List<scalar> 
24000
(
3881.1967
10305.278
29079.574
62031.96
95914.707
126954
152177.02
166586.73
167902.55
174250.51
232324.98
412402.64
674528.23
1033343.4
1491522.8
1984089.7
2523599.2
3218978.3
4279501.6
6045772.6
9067754.4
14294376
23509836
40360870
73009790
1.419694e+08
3.0771661e+08
7.9524917e+08
2.8070848e+09
1.8266841e+10
3867.5915
10256.541
28944.41
61819.473
95695.205
126755.55
152012.24
166475.86
167842.86
174176.98
232190.7
412165.7
674293.8
1033376.5
1491614.6
1984112
2523728.4
3219486.1
4280667.5
6047940.6
9071495
14300734
23520724
40379899
73044351
1.4203641e+08
3.0786108e+08
7.9562074e+08
2.8083916e+09
1.8275305e+10
3853.9528
10207.027
28809.896
61620.247
95504.372
126594.31
151900.96
166411.03
167801.45
174114.83
232085.92
412033.37
674193.33
1033518.3
1491659.4
1983757.3
2523080.6
3219010
4281065
6049986
9075958.7
14308579
23533652
40401393
73081946
1.4210774e+08
3.0801335e+08
7.960107e+08
2.8097597e+09
1.8284207e+10
3840.1541
10157.16
28676.403
61422.886
95313.184
126430.16
151782.66
166332.95
167748.19
174046.16
231988.29
411926.49
674088.03
1033593.9
1491510.1
1983073.3
2521994
3217910.3
4280444.4
6050369.1
9077946.4
14313042
23542120
40416814
73110463
1.4216351e+08
3.0813413e+08
7.9632179e+08
2.8108535e+09
1.8291316e+10
3826.2662
10107.081
28543.214
61225.831
95121.623
126266.53
151663.89
166253.31
167693.07
173977.7
231899.04
411853.19
674020.13
1033712
1491408.8
1982454.6
2521009.6
3216986.2
4280133.2
6051268.5
9080722.5
14318628
23552155
40434501
73142551
1.4222562e+08
3.0826794e+08
7.9666569e+08
2.8120614e+09
1.8299173e+10
3812.318
10056.915
28410.403
61028.974
94929.773
126102.9
151544.48
166172.25
167636.11
173908.64
231815.5
411803.69
673980.48
1033865.9
1491347
1981873.8
2520055.6
3216081.4
4279829.6
6052167.9
9083504.7
14324254
23562309
40452468
73175224
1.4228895e+08
3.0840446e+08
7.9701661e+08
2.8132938e+09
1.8307193e+10
3798.3323
10006.719
28277.896
60832.156
94737.666
125939.21
151424.79
166090.53
167578.02
173839.36
231736.36
411772.28
673963.39
1034049
1491318.7
1981326.3
2519132.6
3215208.1
4279565.9
6053126.8
9086380
14330027
23572699
40470823
73208580
1.4235357e+08
3.0854374e+08
7.9737454e+08
2.8145504e+09
1.8315377e+10
3784.3236
9956.5241
28145.655
60635.306
94545.298
125775.33
151304.87
166008.34
167519.12
173769.92
231660.35
411753.66
673962.39
1034252.6
1491313
1980800.8
2518229.2
3214354
4279325
6054118.3
9089306.4
14335883
23583227
40489417
73242362
1.4241901e+08
3.0868475e+08
7.9773685e+08
2.8158217e+09
1.8323664e+10
3770.3017
9906.3433
28013.647
60438.375
94352.666
125611.19
151184.73
165925.8
167459.76
173700.37
231586.56
411743.68
673972.74
1034470.2
1491322.3
1980289.9
2517339.3
3213513.2
4279100
6055132
9092266.5
14341792
23593843
40508160
73276412
1.4248496e+08
3.0882685e+08
7.9810184e+08
2.817102e+09
1.8332018e+10
3756.2735
9856.1843
27881.845
60241.33
94159.762
125446.72
151064.36
165843
167400.11
173630.75
231514.31
411738.49
673991.07
1034697.4
1491341
1979788.5
2516458.8
3212682.5
4278887.6
6056163
9095252
14347741
23604521
40527008
73310646
1.4255126e+08
3.0896967e+08
7.9846859e+08
2.8183878e+09
1.834042e+10
3742.2442
9806.0512
27750.229
60044.146
93966.591
125281.87
150943.73
165759.97
167340.25
173561.06
231443.11
411733.18
674014.93
1034930.7
1491365.6
1979292.9
2515584.6
3211859
4278683.9
6057204.7
9098251.8
14353710
23615232
40545910
73344974
1.4261773e+08
3.0911284e+08
7.9883616e+08
2.8196759e+09
1.8348849e+10
3728.2177
9755.946
27618.782
59846.805
93773.153
125116.6
150822.83
165676.75
167280.24
173491.32
231372.76
411731.02
674042.73
1035168
1491393.4
1978800.9
2514714.9
3211041.4
4278487.5
6058255.5
9101262.6
14359694
23625964
40564844
73379357
1.426843e+08
3.092562e+08
7.9920405e+08
2.8209643e+09
1.8357295e+10
3714.1977
9705.8706
27487.495
59649.292
93579.453
124950.9
150701.62
165593.34
167220.12
173421.53
231303.02
411731.21
674073.25
1035407.6
1491422.3
1978310.3
2513847.8
3210227.7
4278296.1
6059311.3
9104278.3
14365682
23636702
40583784
73413745
1.4275087e+08
3.0939952e+08
7.9957175e+08
2.8222512e+09
1.8365749e+10
3700.1877
9655.8277
27356.356
59451.593
93385.498
124784.72
150580.09
165509.76
167159.91
173351.69
231233.68
411732.67
674105.6
1035648.4
1491451.1
1977820.2
2512982.7
3209417.7
4278109.5
6060372.3
9107298.7
14371675
23647442
40602725
73448127
1.4281741e+08
3.0954275e+08
7.9993904e+08
2.8235355e+09
1.8374205e+10
3686.191
9605.8202
27225.354
59253.696
93191.295
124618.05
150458.23
165426.03
167099.63
173281.81
231164.56
411734.19
674139.02
1035889.4
1491478.8
1977329.4
2512118.6
3208610.1
4277926
6061435.6
9110319
14377663
23658172
40621645
73482467
1.4288386e+08
3.0968573e+08
8.003055e+08
2.8248155e+09
1.8382655e+10
3672.2109
9555.8512
27094.481
59055.593
92996.857
124450.89
150336
165342.15
167039.31
173211.89
231095.53
411734.5
674172.96
1036130
1491504.6
1976837.4
2511254.9
3207804.9
4277745.9
6062501.6
9113339.6
14383648
23668891
40640544
73516761
1.4295021e+08
3.0982843e+08
8.0067102e+08
2.8260909e+09
1.83911e+10
3658.251
9505.9244
26963.731
58857.274
92802.191
124283.21
150213.4
165258.13
166978.97
173141.94
231026.53
411733.1
674207.12
1036369.9
1491528
1976343.4
2510391
3207001
4277567.7
6063568
9116357
14389624
23679593
40659407
73550987
1.430164e+08
3.0997076e+08
8.0103536e+08
2.8273605e+09
1.8399535e+10
3644.3146
9456.044
26833.099
58658.729
92607.31
124115
150090.41
165173.98
166918.61
173071.96
230957.58
411731.92
674241.41
1036608.7
1491548.8
1975847.5
2509527.1
3206199
4277392
6064636.1
9119373.4
14395594
23690280
40678241
73585150
1.4308246e+08
3.1011274e+08
8.0139852e+08
2.8286244e+09
1.8407964e+10
3630.4055
9406.2149
26702.578
58459.949
92412.226
123946.27
149967.01
165089.72
166858.29
173001.95
230888.58
411730.44
674275.54
1036846.1
1491566.8
1975349.4
2508662.7
3205398
4277217.7
6065703.7
9122385.1
14401552
23700944
40697029
73619224
1.4314833e+08
3.1025424e+08
8.0176019e+08
2.8298813e+09
1.841638e+10
3616.5274
9356.4425
26572.164
58260.927
92216.955
123777
149843.18
165005.37
166798.01
172931.92
230819.46
411728.03
674309.26
1037082
1491581.7
1974849
2507798.1
3204598.6
4277045.6
6066772
9125393.7
14407501
23711587
40715776
73653213
1.4321401e+08
3.1039526e+08
8.0212032e+08
2.8311307e+09
1.8424785e+10
3602.6842
9306.7322
26441.853
58061.655
92021.513
123607.18
149718.92
164920.92
166737.78
172861.87
230750.13
411724.1
674342.32
1037316.1
1491593.1
1974345.9
2506932.5
3203799.9
4276874.2
6067838.9
9128396
14413435
23722201
40734470
73687098
1.4327946e+08
3.1053572e+08
8.0247867e+08
2.8323716e+09
1.8433174e+10
3588.8796
9257.0896
26311.643
57862.125
91825.91
123436.81
149594.21
164836.4
166677.62
172791.81
230680.58
411718.51
674374.66
1037548.4
1491601.3
1973840.3
2506066.7
3203002.8
4276705.1
6068906.5
9131395.1
14419359
23732794
40753119
73720890
1.433447e+08
3.1067563e+08
8.0283524e+08
2.8336037e+09
1.8441549e+10
3575.1178
9207.5212
26181.532
57662.327
91630.131
123265.93
149469.03
164751.83
166617.54
172721.73
230610.82
411711.91
674406.23
1037778.5
1491605.8
1973331.8
2505200
3202206.5
4276536.9
6069972.5
9134387.3
14425267
23743357
40771711
73754569
1.434097e+08
3.1081492e+08
8.031898e+08
2.834826e+09
1.8449908e+10
3561.4027
9158.0338
26051.517
57462.258
91434.098
123094.66
149343.38
164667.21
166557.55
172651.64
230540.81
411704.4
674436.96
1038006.6
1491606.5
1972820.4
2504332.5
3201411.6
4276370.6
6071038.7
9137375.2
14431164
23753894
40790252
73788144
1.4347447e+08
3.1095362e+08
8.0354237e+08
2.8360385e+09
1.8458253e+10
3547.7387
9108.6342
25921.597
57261.913
91237.814
122923
149217.25
164582.57
166497.68
172581.54
230470.49
411695.61
674466.71
1038232.5
1491603.5
1972305.8
2503463.8
3200617
4276204.8
6072103.2
9140356.2
14437044
23764399
40808733
73821599
1.4353897e+08
3.1109165e+08
8.0389278e+08
2.8372405e+09
1.8466584e+10
3534.1298
9059.3297
25791.77
57061.289
91041.283
122750.94
149090.72
164497.92
166437.94
172511.45
230399.82
411685.27
674495.39
1038456.1
1491596.9
1971788.4
2502594.2
3199823.4
4276040.8
6073168
9143333.4
14442913
23774880
40827163
73854946
1.4360323e+08
3.1122903e+08
8.0424103e+08
2.8384317e+09
1.8474901e+10
3520.5803
9010.1274
25662.039
56860.383
90844.503
122578.5
148963.91
164413.27
166378.35
172441.36
230328.79
411673.31
674522.92
1038677.5
1491586.4
1971267.8
2501723.3
3199029.8
4275876.5
6074229.8
9146301.8
14448763
23785326
40845525
73888159
1.436672e+08
3.1136565e+08
8.0458684e+08
2.8396109e+09
1.8483201e+10
3507.0944
8961.0352
25532.404
56659.19
90647.479
122405.66
148836.82
164328.64
166318.93
172371.29
230257.4
411660.01
674549.43
1038896.6
1491572.2
1970744.5
2500851.7
3198237.3
4275713.4
6075290.5
9149264.3
14454600
23795741
40863830
73921251
1.4373088e+08
3.1150155e+08
8.0493025e+08
2.8407781e+09
1.8491486e+10
3493.6765
8912.0614
25402.864
56457.708
90450.211
122232.43
148709.45
164244.04
166259.72
172301.25
230185.65
411645.59
674574.92
1039113.6
1491554.4
1970218.4
2499979.2
3197445.3
4275550.6
6076348.8
9152218.5
14460418
23806122
40882067
73954209
1.4379427e+08
3.1163667e+08
8.0527106e+08
2.8419323e+09
1.8499752e+10
3480.3309
8863.2142
25273.421
56255.935
90252.703
122058.8
148581.81
164159.51
166200.74
172231.22
230113.48
411629.79
674599.32
1039328.5
1491533.3
1969689.9
2499106.4
3196654.8
4275389.9
6077407.5
9155168.8
14466224
23816477
40900249
73987048
1.4385739e+08
3.1177106e+08
8.0560933e+08
2.8430735e+09
1.8508004e+10
3467.062
8814.5018
25144.077
56053.868
90054.96
121884.78
148453.9
164075.04
166141.98
172161.21
230040.86
411612.41
674622.49
1039541
1491508.5
1969158.4
2498232.6
3195864.9
4275229.5
6078463.7
9158110.5
14472011
23826795
40918362
74019747
1.4392019e+08
3.1190462e+08
8.0594485e+08
2.8442008e+09
1.8516239e+10
3453.874
8765.9328
25014.837
55851.506
89856.981
121710.37
148325.71
163990.66
166083.49
172091.23
229967.78
411593.45
674644.44
1039751.3
1491479.9
1968624.2
2497358.2
3195076.3
4275070.9
6079519.6
9161047.2
14477785
23837084
40936415
74052320
1.439827e+08
3.120374e+08
8.062777e+08
2.8453146e+09
1.852446e+10
3440.7713
8717.5158
24885.704
55648.847
89658.771
121535.56
148197.26
163906.39
166025.22
172021.29
229894.23
411573.03
674665.16
1039959.2
1491447.7
1968086.9
2496482.7
3194288.1
4274912.5
6080573
9163975.4
14483540
23847337
40954397
74084747
1.4404488e+08
3.1216933e+08
8.0660768e+08
2.8464138e+09
1.8532665e+10
3427.7583
8669.2601
24756.681
55445.891
89460.331
121360.34
148068.54
163822.23
165967.17
171951.38
229820.19
411551.25
674684.65
1040164.8
1491411.9
1967547.1
2495606.6
3193501
4274755.8
6081626.6
9166899.5
14489282
23857562
40972321
74117049
1.4410677e+08
3.1230043e+08
8.0693485e+08
2.8474985e+09
1.8540858e+10
3414.8394
8621.1747
24627.77
55242.637
89261.664
121184.73
147939.55
163738.21
165909.38
171881.52
229745.63
411527.94
674702.83
1040368
1491372.4
1967004.3
2494729.2
3192713.8
4274598.6
6082676.6
9169813.7
14495005
23867748
40990170
74149198
1.441683e+08
3.1243063e+08
8.0725896e+08
2.8485677e+09
1.8549032e+10
3402.0187
8573.2687
24498.979
55039.085
89062.776
121008.71
147810.28
163654.33
165851.85
171811.71
229670.53
411503.05
674719.72
1040569.1
1491329.4
1966459
2493851.3
3191927.9
4274442.7
6083725.7
9172722.1
14500713
23877903
41007956
74181213
1.4422953e+08
3.1255997e+08
8.0758011e+08
2.8496216e+09
1.8557191e+10
3389.3006
8525.551
24370.315
54835.236
88863.664
120832.29
147680.74
163570.61
165794.61
171741.95
229594.88
411476.6
674735.37
1040767.8
1491283
1965911.1
2492972.7
3191142.5
4274286.9
6084771.8
9175621.4
14506400
23888020
41025669
74213076
1.4429041e+08
3.126884e+08
8.0789812e+08
2.8506593e+09
1.8565332e+10
3376.6893
8478.0309
24241.785
54631.089
88664.334
120655.46
147550.93
163487.08
165737.69
171672.26
229518.68
411448.66
674749.84
1040964.5
1491233.5
1965361.2
2492094.3
3190359.2
4274133.7
6085819.1
9178517.6
14512077
23898112
41043325
74244816
1.4435099e+08
3.1281598e+08
8.0821317e+08
2.8516814e+09
1.857346e+10
3364.189
8430.7182
24113.393
54426.647
88464.778
120478.25
147420.85
163403.74
165681.08
171602.61
229441.9
411419.22
674763.06
1041159
1491180.5
1964808.5
2491214.9
3189576.2
4273980.6
6086863.5
9181404.8
14517735
23908165
41060907
74276402
1.4441123e+08
3.1294264e+08
8.0852501e+08
2.8526871e+09
1.8581572e+10
3351.8038
8383.6225
23985.148
54221.912
88264.848
120301.06
147290.8
163320.62
165624.8
171533.03
229364.5
411388.19
674774.98
1041351.3
1491124
1964253.4
2490335.1
3188794.7
4273829.3
6087907.6
9184286.9
14523379
23918188
41078427
74307852
1.4447114e+08
3.1306841e+08
8.088338e+08
2.8536768e+09
1.8589671e+10
3339.538
8336.7531
23857.059
54016.888
88064.544
120123.89
147160.78
163237.72
165568.84
171463.5
229286.46
411355.46
674785.5
1041541.3
1491064.1
1963695.6
2489454.3
3188013.2
4273677.5
6088948.3
9187159.3
14529002
23928172
41095869
74339145
1.4453069e+08
3.1319322e+08
8.0913928e+08
2.8546497e+09
1.8597754e+10
3327.3953
8290.1193
23729.136
53811.581
87863.858
119946.72
147030.77
163155.04
165513.22
171394.04
229207.76
411321.05
674794.68
1041729
1491001.1
1963135.7
2488573.4
3187233.5
4273528
6089989.6
9190028.3
14534614
23938129
41113255
74370310
1.4458992e+08
3.1331715e+08
8.0944167e+08
2.8556062e+09
1.8605825e+10
3315.3799
8243.7305
23601.391
53605.994
87662.793
119769.54
146900.79
163072.59
165457.94
171324.64
229128.4
411284.96
674802.55
1041914.5
1490934.6
1962573.2
2487691.7
3186454.1
4273378.1
6091027.4
9192887.5
14540205
23948047
41130564
74401317
1.446488e+08
3.1344011e+08
8.0974074e+08
2.8565456e+09
1.8613878e+10
3303.4956
8197.5967
23473.831
53400.135
87461.343
119592.33
146770.81
162990.38
165403.03
171255.31
229048.34
411247.24
674809.15
1042098
1490865
1962008.7
2486810.1
3185676.5
4273230.4
6092065.5
9195742.3
14545784
23957937
41147814
74432193
1.4470737e+08
3.135622e+08
8.1003671e+08
2.8574685e+09
1.8621917e+10
3291.7463
8151.7277
23346.469
53194.009
87259.506
119415.09
146640.84
162908.41
165348.5
171186.04
228967.59
411207.82
674814.43
1042279.4
1490792.2
1961441.9
2485927.9
3184899.6
4273082.9
6093100.9
9198588.3
14551343
23967789
41164990
74462918
1.4476558e+08
3.1368334e+08
8.1032937e+08
2.8583742e+09
1.8629939e+10
3280.1356
8106.1328
23219.316
52987.625
87057.285
119237.8
146510.88
162826.69
165294.34
171116.83
228886.1
411166.66
674818.46
1042458.8
1490716.6
1960873.2
2485045.8
3184124.7
4272938.2
6094137.7
9201432
14556893
23977618
41182114
74493522
1.448235e+08
3.1380362e+08
8.1061895e+08
2.8592635e+09
1.8637951e+10
3268.6672
8060.8214
23092.386
52780.991
86854.674
119060.44
146380.91
162745.23
165240.57
171047.67
228803.85
411123.73
674821.19
1042636.2
1490637.8
1960302
2484163
3183350.1
4272793.2
6095171.2
9204266.4
14562424
23987409
41199163
74523971
1.4488106e+08
3.1392296e+08
8.1090526e+08
2.8601359e+09
1.8645947e+10
3257.3445
8015.803
22965.695
52574.115
86651.675
118882.99
146250.93
162664.03
165187.18
170978.56
228720.84
411079.01
674822.63
1042811.8
1490555.9
1959728.8
2483280.2
3182577.1
4272650.1
6096204.7
9207096.4
14567941
23997171
41216153
74554292
1.4493831e+08
3.1404142e+08
8.111885e+08
2.8609922e+09
1.8653931e+10
3246.171
7971.0871
22839.255
52367.007
86448.282
118705.45
146120.92
162583.07
165134.16
170909.5
228637.02
411032.45
674822.71
1042985.4
1490471.1
1959153.4
2482396.7
3181804.6
4272506.9
6097235.3
9209917.4
14573440
24006897
41233071
74584462
1.4499521e+08
3.1415895e+08
8.114685e+08
2.8618317e+09
1.86619e+10
3235.1499
7926.6834
22713.08
52159.677
86244.496
118527.8
145990.89
162502.37
165081.53
170840.48
228552.38
410984.04
674821.5
1043157.5
1490383.5
1958576.3
2481513.6
3181034.4
4272366.7
6098267.5
9212736.6
14578930
24016601
41249938
74614517
1.4505182e+08
3.1427564e+08
8.1174551e+08
2.8626551e+09
1.866986e+10
3224.2847
7882.6011
22587.185
51952.137
86040.318
118350.03
145860.81
162421.91
165029.28
170771.5
228466.9
410933.74
674818.95
1043328
1490292.8
1957997
2480630
3180264.8
4272226.7
6099297.1
9215547.3
14584401
24026268
41266736
74644425
1.451081e+08
3.1439142e+08
8.1201935e+08
2.8634619e+09
1.8677803e+10
3213.5781
7838.8493
22461.587
51744.399
85835.744
118172.1
145730.68
162341.7
164977.41
170702.54
228380.56
410881.53
674815.01
1043496.6
1490199.2
1957415.8
2479746.6
3179497.1
4272088.9
6100327.4
9218354.7
14589862
24035912
41283480
74674215
1.4516409e+08
3.1450638e+08
8.1229023e+08
2.864253e+09
1.8685733e+10
3203.0333
7795.4369
22336.304
51536.474
85630.777
117994.02
145600.48
162261.73
164925.91
170633.59
228293.34
410827.36
674809.63
1043662.9
1490102.7
1956832.5
2478862.6
3178729.9
4271951.2
6101354.9
9221153.8
14595305
24045521
41300157
74703864
1.4521975e+08
3.1462045e+08
8.12558e+08
2.8650279e+09
1.8693648e+10
3192.6529
7752.3727
22211.353
51328.374
85425.415
117815.76
145470.2
162181.99
164874.77
170564.65
228205.21
410771.23
674802.86
1043827.1
1490003.6
1956247.6
2477979
3177964.9
4271816.3
6102384.1
9223951.4
14600741
24055109
41316787
74733404
1.4527514e+08
3.1473374e+08
8.1282294e+08
2.8657875e+09
1.8701555e+10
3182.4398
7709.6658
22086.751
51120.114
85219.656
117637.3
145339.82
162102.46
164823.98
170495.69
228116.15
410713.09
674794.67
1043989.3
1489901.3
1955660.5
2477094.9
3177200.4
4271681.6
6103410.8
9226740.9
14606158
24064663
41333350
74762806
1.4533021e+08
3.1484617e+08
8.1308489e+08
2.8665317e+09
1.8709448e+10
3172.3965
7667.325
21962.513
50911.707
85013.504
117458.64
145209.33
162023.14
164773.54
170426.71
228026.14
410652.9
674785.09
1044149.5
1489796.2
1955071.6
2476211
3176437.9
4271549.1
6104438.3
9229527.4
14611566
24074194
41349864
74792099
1.4538501e+08
3.1495784e+08
8.1334413e+08
2.8672617e+09
1.8717331e+10
3162.5255
7625.3586
21838.658
50703.168
84806.957
117279.74
145078.71
161944.03
164723.42
170357.69
227935.16
410590.66
674774.06
1044307.6
1489688.4
1954480.9
2475326.8
3175676.2
4271417.3
6105463.8
9232306.7
14616958
24083694
41366316
74821263
1.4543951e+08
3.1506869e+08
8.1360054e+08
2.8679767e+09
1.8725202e+10
3152.829
7583.7746
21715.207
50494.514
84600.02
117100.6
144947.94
161865.1
164673.63
170288.62
227843.2
410526.36
674761.66
1044463.7
1489578.1
1953888.7
2474443.1
3174916.9
4271288.6
6106491.6
9235085.5
14622343
24093176
41382727
74850327
1.4549376e+08
3.151788e+08
8.1385429e+08
2.8686775e+09
1.8733064e+10
3143.3092
7542.5809
21592.178
50285.757
84392.692
116921.2
144817.02
161786.33
164624.12
170219.47
227750.22
410459.97
674747.89
1044617.8
1489464.8
1953294.4
2473559
3174158.3
4271160.2
6107517.3
9237857.2
14627713
24102628
41399077
74879266
1.4554772e+08
3.1528813e+08
8.1410527e+08
2.8693637e+09
1.8740912e+10
3133.9682
7501.7854
21469.591
50076.916
84184.974
116741.52
144685.9
161707.72
164574.89
170150.23
227656.21
410391.46
674732.73
1044770
1489348.7
1952698.3
2472675
3173401.4
4271034.1
6108543.8
9240626.5
14633075
24112060
41415384
74908106
1.4560144e+08
3.1539676e+08
8.1435373e+08
2.8700364e+09
1.8748749e+10
3124.8077
7461.396
21347.464
49868.003
83976.87
116561.55
144554.59
161629.24
164525.9
170080.87
227561.14
410320.79
674716.13
1044920.2
1489230
1952100.3
2471790.8
3172645.5
4270908.5
6109568.7
9243389.2
14638422
24121462
41431634
74936829
1.4565488e+08
3.1550465e+08
8.1459959e+08
2.8706955e+09
1.8756572e+10
3115.8297
7421.42
21225.813
49659.038
83768.381
116381.27
144423.06
161550.86
164477.15
170011.37
227465
410247.99
674698.18
1045068.4
1489108.8
1951501.1
2470907.1
3171891.9
4270786.2
6110596.1
9246152
14643763
24130850
41447847
74965465
1.4570811e+08
3.156119e+08
8.1484309e+08
2.8713419e+09
1.8764391e+10
3107.0356
7381.8644
21104.661
49450.037
83559.513
116200.66
144291.28
161472.57
164428.6
169941.71
227367.79
410173.05
674678.9
1045214.7
1488984.7
1950899.7
2470023
3171139.1
4270664.6
6111622
9248908.6
14649091
24140210
41464007
74993990
1.4576107e+08
3.1571845e+08
8.1508416e+08
2.8719757e+09
1.8772198e+10
3098.427
7342.7358
20984.026
49241.015
83350.269
116019.71
144159.24
161394.31
164380.24
169871.85
227269.47
410095.98
674658.33
1045359.3
1488858
1950296.6
2469139.1
3170388.1
4270545.4
6112649.3
9251663.7
14654412
24149553
41480129
75022427
1.4581382e+08
3.1582437e+08
8.1532302e+08
2.8725979e+09
1.8779999e+10
3090.005
7304.0404
20863.929
49031.992
83140.652
115838.4
144026.93
161316.03
164332.02
169801.77
227170.04
410016.76
674636.41
1045501.9
1488728.6
1949691.7
2468254.8
3169638
4270426.9
6113675.2
9254413.4
14659720
24158872
41496201
75050761
1.4586632e+08
3.1592963e+08
8.1555958e+08
2.873208e+09
1.8787788e+10
3081.7709
7265.7846
20744.388
48822.981
82930.667
115656.72
143894.31
161237.72
164283.92
169731.44
227069.48
409935.43
674613.24
1045642.7
1488596.9
1949085.4
2467371.2
3168890.3
4270311.7
6114703.9
9257163.7
14665025
24168177
41512241
75079018
1.4591864e+08
3.1603432e+08
8.15794e+08
2.8738064e+09
1.8795572e+10
3073.7257
7227.9745
20625.421
48614.002
82720.317
115474.66
143761.38
161159.35
164235.91
169660.81
226967.78
409852
674588.83
1045781.7
1488462.4
1948477.1
2466486.9
3168143.2
4270197.1
6115731.4
9259908.5
14670317
24177458
41528234
75107174
1.4597072e+08
3.1613837e+08
8.1602621e+08
2.8743933e+09
1.8803343e+10
3065.8702
7190.6159
20507.046
48405.07
82509.609
115292.21
143628.1
161080.89
164187.96
169589.86
226864.92
409766.51
674563.26
1045918.9
1488325.2
1947866.9
2465602.8
3167398
4270085.1
6116760.7
9262652.8
14675604
24186726
41544195
75135259
1.4602261e+08
3.162419e+08
8.1625651e+08
2.8749698e+09
1.8811105e+10
3058.2052
7153.7138
20389.281
48196.203
82298.548
115109.34
143494.47
161002.31
164140.03
169518.54
226760.89
409679
674536.51
1046054.3
1488185.3
1947254.9
2464718.3
3166653.6
4269973.9
6117788.9
9265392
14680880
24195970
41560113
75163253
1.460743e+08
3.1634486e+08
8.164848e+08
2.875536e+09
1.8818858e+10
3050.7312
7117.2728
20272.146
47987.418
82087.14
114926.06
143360.47
160923.58
164092.1
169446.81
226655.68
409589.57
674508.71
1046188.1
1488043.2
1946641.5
2463834.4
3165911.6
4269866.1
6118820.2
9268132.9
14686153
24205206
41576005
75191186
1.4612583e+08
3.1644734e+08
8.167113e+08
2.8760923e+09
1.8826608e+10
3043.4486
7081.2974
20155.658
47778.728
81875.392
114742.35
143226.08
160844.68
164044.13
169374.62
226549.28
409498.3
674479.92
1046320.1
1487898.3
1946026
2462949.7
3165170.1
4269758.8
6119850.3
9270868.7
14691415
24214419
41591854
75219028
1.4617714e+08
3.1654926e+08
8.1693588e+08
2.8766389e+09
1.8834348e+10
3036.3577
7045.7919
20039.835
47570.152
81663.307
114558.21
143091.28
160765.57
163996.08
169301.91
226441.68
409405.32
674450.25
1046450.6
1487750.7
1945408.7
2462065.1
3164430.2
4269654
6120882.4
9273604.6
14696674
24223622
41607677
75246809
1.462283e+08
3.1665073e+08
8.1715887e+08
2.8771771e+09
1.8842084e+10
3029.4586
7010.7601
19924.691
47361.705
81450.894
114373.61
142956.06
160686.22
163947.94
169228.63
226332.84
409310.73
674419.72
1046579.4
1487600.5
1944789.4
2461179.9
3163691.1
4269549.9
6121913.7
9276336.1
14701922
24232805
41623462
75274512
1.4627929e+08
3.1675171e+08
8.1738018e+08
2.8777066e+09
1.8849812e+10
3022.7514
6976.2057
19810.242
47153.401
81238.159
114188.56
142820.4
160606.61
163899.66
169154.71
226222.75
409214.76
674388.5
1046706.7
1487448
1944168.7
2460295.4
3162954.5
4269449.8
6122949.1
9279070.8
14707172
24241983
41639231
75302169
1.4633015e+08
3.168523e+08
8.176e+08
2.8782277e+09
1.8857537e+10
3016.2358
6942.1315
19696.503
46945.257
81025.107
114003.06
142684.3
160526.72
163851.23
169080.09
226111.37
409117.65
674356.69
1046832.3
1487292.8
1943545.9
2459410.1
3162218.4
4269350.3
6123983.5
9281801.2
14712411
24251142
41654962
75329747
1.4638083e+08
3.1695241e+08
8.1781813e+08
2.87874e+09
1.8865251e+10
3009.9118
6908.54
19583.49
46737.283
80811.749
113817.08
142547.73
160446.5
163802.6
169004.67
225998.64
409019.72
674324.44
1046956.6
1487134.9
1942921.2
2458524.6
3161483.8
4269253.1
6125019.9
9284532
14717647
24260291
41670672
75357277
1.4643138e+08
3.1705216e+08
8.180349e+08
2.879245e+09
1.8872957e+10
3003.7786
6875.4332
19471.218
46529.498
80598.088
113630.64
142410.69
160365.94
163753.76
168928.39
225884.51
408921.36
674291.85
1047079.4
1486974.4
1942294.4
2457638.3
3160749.5
4269156
6126054.9
9287258.1
14722874
24269422
41686346
75384737
1.4648178e+08
3.1715149e+08
8.1825025e+08
2.8797427e+09
1.8880656e+10
2997.836
6842.8128
19359.699
46321.911
80384.133
113443.72
142273.17
160285.02
163704.68
168851.15
225768.86
408823.11
674259.1
1047200.7
1486811.7
1941666.3
2456752.7
3160017.8
4269062.9
6127094.2
9289987.8
14728102
24278552
41702010
75412165
1.4653208e+08
3.1725052e+08
8.1846445e+08
2.880234e+09
1.8888356e+10
2992.0831
6810.6806
19248.946
46114.534
80169.889
113256.32
142135.17
160203.71
163655.37
168772.84
225651.57
408725.64
674226.27
1047320.6
1486646.3
1941036.2
2455866.6
3159286.8
4268971
6128133.5
9292714.7
14733323
24287665
41717643
75439527
1.4658223e+08
3.1734915e+08
8.1867731e+08
2.8807188e+09
1.8896049e+10
2986.5192
6779.0375
19138.968
45907.381
79955.361
113068.44
141996.66
160121.98
163605.8
168693.36
225532.43
408629.85
674193.46
1047439.2
1486478.2
1940404.2
2454980.2
3158557.4
4268881.8
6129175.6
9295443.2
14738543
24296774
41733261
75466851
1.4663228e+08
3.1744749e+08
8.1888914e+08
2.881198e+09
1.8903739e+10
2981.1434
6747.8842
19029.777
45700.459
79740.558
112880.08
141857.66
160039.83
163555.97
168612.61
225411.18
408536.87
674160.6
1047556.2
1486307.5
1939769.9
2454092.9
3157828.1
4268792.8
6130216.3
9298167.6
14743755
24305866
41748849
75494117
1.4668221e+08
3.1754548e+08
8.190998e+08
2.8816713e+09
1.8911422e+10
2975.9547
6717.2206
18921.382
45493.782
79525.486
112691.24
141718.15
159957.22
163505.88
168530.48
225287.44
408448.22
674127.56
1047671.9
1486134.6
1939134.4
2453206.2
3157101.3
4268707.4
6131261.2
9300895.9
14748969
24314959
41764432
75521361
1.4673207e+08
3.1764326e+08
8.1930956e+08
2.8821393e+09
1.8919105e+10
2970.9519
6687.0463
18813.795
45287.358
79310.153
112501.92
141578.14
159874.14
163455.55
168447.78
225162.44
408359.56
674093.78
1047785.8
1485959.1
1938497
2452319
3156375.3
4268623
6132306.1
9303621.6
14754176
24324037
41779989
75548553
1.4678181e+08
3.1774072e+08
8.1951824e+08
2.8826019e+09
1.8926779e+10
2966.1337
6657.3605
18707.023
45081.195
79094.561
112312.12
141437.62
159790.57
163404.98
168364.8
225036.63
408269.43
674059.06
1047898.3
1485781
1937857.7
2451431.6
3155650.8
4268541.5
6133354.1
9306349.7
14759384
24333113
41795535
75575719
1.4683148e+08
3.1783797e+08
8.1972609e+08
2.8830599e+09
1.8934448e+10
2961.4988
6628.1622
18601.074
44875.301
78878.717
112121.84
141296.59
159706.53
163354.15
168281.55
224910.07
408177.78
674023.36
1048009.2
1485600.3
1937216.2
2450543.2
3154926.3
4268460.3
6134401.2
9309074.1
14764584
24342175
41811056
75602835
1.4688104e+08
3.1793494e+08
8.1993302e+08
2.8835133e+09
1.8942111e+10
2957.0457
6599.4501
18495.953
44669.679
78662.626
111931.08
141155.05
159622.05
163303.05
168198.04
224782.79
408084.69
673986.76
1048118.5
1485417.5
1936573.3
2449655.1
3154204.2
4268382.8
6135452.5
9311802.9
14769789
24351240
41826575
75629939
1.4693055e+08
3.1803175e+08
8.2013933e+08
2.8839632e+09
1.8949776e+10
2952.773
6571.2223
18391.664
44464.34
78446.292
111739.85
141013.01
159537.13
163251.66
168114.25
224654.81
407990.23
673949.25
1048226.3
1485232.1
1935928.6
2448766.7
3153483
4268306.5
6136504.1
9314529.8
14774988
24360294
41842074
75657000
1.4697997e+08
3.1812832e+08
8.2034487e+08
2.8844096e+09
1.8957436e+10
2948.6789
6543.4765
18288.212
44259.286
78229.722
111548.14
140870.48
159451.76
163199.99
168030.2
224526.18
407894.47
673910.93
1048332.7
1485044.3
1935282.2
2447878.2
3152763.4
4268233.1
6137559.3
9317260.1
14780189
24369348
41857568
75684047
1.4702935e+08
3.1822476e+08
8.2054993e+08
2.8848535e+09
1.8965097e+10
2944.7618
6516.2098
18185.603
44054.524
78012.919
111355.97
140727.44
159365.94
163148.01
167945.87
224396.91
407797.48
673871.8
1048437.5
1484853.9
1934633.4
2446988.6
3152043.8
4268159.8
6138613.7
9319987.6
14785384
24378390
41873044
75711057
1.4707865e+08
3.1832099e+08
8.2075433e+08
2.885294e+09
1.8972754e+10
2941.0198
6489.4189
18083.838
43850.057
77795.888
111163.34
140583.93
159279.69
163095.73
167861.27
224267.06
407699.37
673831.97
1048541.1
1484661.4
1933983.3
2446099.2
3151326.1
4268090.1
6139672.2
9322719.4
14790584
24387437
41888522
75738065
1.4712793e+08
3.1841714e+08
8.2095831e+08
2.885732e+09
1.8980411e+10
2937.4511
6463.1002
17982.921
43645.885
77578.632
110970.24
140439.93
159192.99
163043.13
167776.41
224136.65
407600.22
673791.48
1048643.2
1484466.5
1933331.4
2445209.2
3150609.3
4268021.6
6140731.2
9325449.6
14795779
24396475
41903983
75765043
1.4717715e+08
3.1851313e+08
8.2116175e+08
2.8861672e+09
1.8988061e+10
2934.0535
6437.2501
17882.853
43442.015
77361.154
110776.69
140295.46
159105.86
162990.23
167691.28
224005.73
407500.12
673750.44
1048744.1
1484269.4
1932677.9
2444319.4
3149894.4
4267956.5
6141794.2
9328183.8
14800977
24405516
41919446
75792017
1.4722635e+08
3.1860905e+08
8.2136489e+08
2.8866007e+09
1.8995707e+10
2930.8252
6411.8645
17783.631
43238.445
77143.456
110582.7
140150.52
159018.31
162937.02
167605.9
223874.32
407399.15
673708.88
1048843.8
1484069.8
1932022.2
2443428.7
3149179.6
4267891.8
6142857.2
9330916.8
14806173
24414550
41934895
75818967
1.4727549e+08
3.1870484e+08
8.215676e+08
2.8870321e+09
1.9003351e+10
2927.764
6386.9389
17685.256
43035.177
76925.54
110388.25
140005.14
158930.35
162883.51
167520.26