/*--------------------------------*- C++ -*----------------------------------*\
| =========                 |                                                 |
| \\      /  F ield         | OpenFOAM: The Open Source CFD Toolbox           |
|  \\    /   O peration     | Version:  v2012                                 |
|   \\  /    A nd           | Website:  www.openfoam.com                      |
|    \\/     M anipulation  |                                                 |
\*---------------------------------------------------------------------------*/
FoamFile
{
    version     2.0;
    format      ascii;
    class       surfaceScalarField;
    location    "700";
    object      phi;
}
// * * * * * * * * * * * * * * * * * * * * * * * * * * * * * * * * * * * * * //

dimensions      [1 0 -1 0 0 0 0];
oriented        oriented;


internalField   nonuniform List<scalar> 
47170
(
-1.3075817e-08
-4.3443084e-05
-2.083216e-08
-3.5783182e-05
-1.9095553e-08
-2.8074481e-05
-1.0494869e-08
-2.0217633e-05
-2.2310689e-09
-1.3712606e-05
2.1834345e-09
-9.0869799e-06
4.1722528e-09
-6.0658851e-06
4.6110415e-09
-4.1251277e-06
4.4009062e-09
-2.8720404e-06
3.7749272e-09
-2.0379356e-06
2.876072e-09
-1.4339679e-06
2.0664275e-09
-9.7968053e-07
1.5204807e-09
-6.671717e-07
1.1366e-09
-4.5891457e-07
8.4838331e-10
-3.1414839e-07
6.3113377e-10
-2.1280413e-07
4.6579412e-10
-1.4326838e-07
3.3942096e-10
-9.5963662e-08
2.4365889e-10
-6.3947724e-08
1.7174085e-10
-4.2426226e-08
1.1831727e-10
-2.8029299e-08
7.9207624e-11
-1.84099e-08
5.1192284e-11
-1.198484e-08
3.1660244e-11
-7.6992024e-09
1.8484466e-11
-4.8498934e-09
9.9481266e-12
-2.9662265e-09
4.7268556e-12
-1.7316653e-09
1.7902983e-12
-9.3263514e-10
3.9001344e-13
-4.2476174e-10
-1.1041403e-10
-1.4330606e-08
-4.3428753e-05
-2.3321193e-08
-3.5774192e-05
-2.1098888e-08
-2.8076703e-05
-1.0220171e-08
-2.0228511e-05
-3.106713e-10
-1.3722515e-05
4.6670481e-09
-9.0919576e-06
6.5447354e-09
-6.0677627e-06
6.5174206e-09
-4.1251004e-06
5.6035057e-09
-2.8711264e-06
4.4521457e-09
-2.0367843e-06
3.390093e-09
-1.4329057e-06
2.537227e-09
-9.788277e-07
1.9038884e-09
-6.6653831e-07
1.4083213e-09
-4.5841904e-07
1.0180645e-09
-3.1375811e-07
7.2633736e-10
-2.1251245e-07
5.1325162e-10
-1.4305528e-07
3.585921e-10
-9.5809048e-08
2.4729715e-10
-6.3836427e-08
1.6792754e-10
-4.2346894e-08
1.1187367e-10
-2.7973247e-08
7.2703378e-11
-1.8370756e-08
4.5805575e-11
-1.1957945e-08
2.769978e-11
-7.6811141e-09
1.5856228e-11
-4.8380587e-09
8.3832247e-12
-2.9587616e-09
3.8981839e-12
-1.7271989e-09
1.4318801e-12
-9.3018425e-10
2.9307299e-13
-4.2363388e-10
-1.1012096e-10
-1.4794971e-08
-4.3413958e-05
-2.4006964e-08
-3.576498e-05
-2.145702e-08
-2.8079253e-05
-1.0034492e-08
-2.0239934e-05
1.7218698e-10
-1.3732722e-05
5.4431998e-09
-9.0972286e-06
7.2016569e-09
-6.0695211e-06
6.9765416e-09
-4.1248753e-06
5.8786094e-09
-2.8700284e-06
4.5932915e-09
-2.035499e-06
3.4358488e-09
-1.4317482e-06
2.5010572e-09
-9.7789295e-07
1.7994574e-09
-6.6583667e-07
1.2556724e-09
-4.5787531e-07
8.3832146e-10
-3.1334073e-07
5.3938848e-10
-2.1221357e-07
3.355709e-10
-1.4285145e-07
2.0153525e-10
-9.5675071e-08
1.1703893e-10
-6.3751931e-08
6.5982315e-11
-4.2295887e-08
3.6232653e-11
-2.7943507e-08
1.9343993e-11
-1.8353904e-08
1.0028824e-11
-1.1948642e-08
5.003598e-12
-7.6761125e-09
2.3818977e-12
-4.8354485e-09
1.0545463e-12
-2.9574484e-09
4.1906753e-13
-1.726571e-09
1.3366443e-13
-9.2990707e-10
2.2920344e-14
-4.2352897e-10
-1.1009804e-10
-1.5119634e-08
-4.3398838e-05
-2.4470943e-08
-3.5755628e-05
-2.1714721e-08
-2.8082009e-05
-9.927633e-09
-2.0251721e-05
5.0668752e-10
-1.3743156e-05
5.9603947e-09
-9.1026823e-06
7.6564825e-09
-6.0712172e-06
7.3268857e-09
-4.1245457e-06
6.143168e-09
-2.8688447e-06
4.7940271e-09
-2.0341499e-06
3.580094e-09
-1.4305343e-06
2.6022941e-09
-9.7691519e-07
1.8740389e-09
-6.6510838e-07
1.3154734e-09
-4.5731679e-07
8.9164056e-10
-3.1291686e-07
5.9114385e-10
-2.1191313e-07
3.8632007e-10
-1.4264661e-07
2.4942987e-10
-9.5538238e-08
1.596138e-10
-6.3662113e-08
1.013673e-10
-4.2237691e-08
6.3798009e-11
-2.7905944e-08
3.954473e-11
-1.8329691e-08
2.3987945e-11
-1.1933094e-08
1.4068805e-11
-7.666221e-09
7.8679201e-12
-4.8292596e-09
4.0852515e-12
-2.9536807e-09
1.8776138e-12
-1.7243779e-09
6.8533307e-13
-9.2872793e-10
1.3941617e-13
-4.2299238e-10
-1.0995862e-10
-1.5301108e-08
-4.3383537e-05
-2.4699915e-08
-3.574623e-05
-2.1834558e-08
-2.8084874e-05
-9.8750467e-09
-2.0263681e-05
6.841814e-10
-1.3753715e-05
6.2464428e-09
-9.1082446e-06
7.9112513e-09
-6.072882e-06
7.5290727e-09
-4.1241635e-06
6.3020868e-09
-2.8676177e-06
4.9186865e-09
-2.0327665e-06
3.6728334e-09
-1.4292884e-06
2.6674782e-09
-9.7590987e-07
1.9192355e-09
-6.643601e-07
1.3471552e-09
-4.5674476e-07
9.1378843e-10
-3.1248347e-07
6.0602642e-10
-2.1160542e-07
3.9551997e-10
-1.4243609e-07
2.543769e-10
-9.5397142e-08
1.6165293e-10
-6.356939e-08
1.0171289e-10
-4.2177787e-08
6.3322944e-11
-2.7867561e-08
3.8819929e-11
-1.830521e-08
2.328708e-11
-1.191757e-08
1.3522874e-11
-7.6564707e-09
7.4893253e-12
-4.8232339e-09
3.8535977e-12
-2.9500532e-09
1.7575657e-12
-1.7222871e-09
6.376963e-13
-9.2761327e-10
1.3017541e-13
-4.2248855e-10
-1.0982845e-10
-1.5405352e-08
-4.3368132e-05
-2.4826392e-08
-3.5736809e-05
-2.1915497e-08
-2.8087785e-05
-9.8635874e-09
-2.0275732e-05
7.836145e-10
-1.3764363e-05
6.4169715e-09
-9.1138779e-06
8.0697199e-09
-6.0745347e-06
7.6610026e-09
-4.1237548e-06
6.4107837e-09
-2.8663674e-06
5.0082305e-09
-2.031364e-06
3.7425086e-09
-1.4280226e-06
2.7188277e-09
-9.7488622e-07
1.9568907e-09
-6.6359814e-07
1.3752629e-09
-4.5616317e-07
9.3494755e-10
-3.1204314e-07
6.2184516e-10
-2.1129236e-07
4.0724254e-10
-1.4222148e-07
2.6297118e-10
-9.525291e-08
1.6786126e-10
-6.3474276e-08
1.0611561e-10
-4.2116073e-08
6.6373633e-11
-2.7827821e-08
4.0867796e-11
-1.8279729e-08
2.4617135e-11
-1.1901324e-08
1.4345128e-11
-7.6462154e-09
7.9714779e-12
-4.8168667e-09
4.1138895e-12
-2.9462048e-09
1.88067e-12
-1.7200615e-09
6.8359451e-13
-9.2642329e-10
1.3951901e-13
-4.2194951e-10
-1.0968893e-10
-1.5462942e-08
-4.3352669e-05
-2.4898316e-08
-3.5727373e-05
-2.1979927e-08
-2.8090704e-05
-9.8806155e-09
-2.0287832e-05
8.298368e-10
-1.3775073e-05
6.5176505e-09
-9.1195657e-06
8.1684349e-09
-6.0761854e-06
7.7456353e-09
-4.1233321e-06
6.4826172e-09
-2.8651044e-06
5.0685634e-09
-2.0299499e-06
3.7898832e-09
-1.4267439e-06
2.7536598e-09
-9.7385003e-07
1.9821905e-09
-6.6282664e-07
1.3938755e-09
-4.5557489e-07
9.4865412e-10
-3.1159789e-07
6.3179141e-10
-2.1097553e-07
4.143312e-10
-1.42004e-07
2.6793664e-10
-9.5106553e-08
1.7126841e-10
-6.3377604e-08
1.0841108e-10
-4.2053247e-08
6.7885646e-11
-2.7787297e-08
4.1841446e-11
-1.8253705e-08
2.5222017e-11
-1.1884708e-08
1.4707472e-11
-7.6357136e-09
8.1746507e-12
-4.8103389e-09
4.2188744e-12
-2.9422552e-09
1.9282702e-12
-1.7177755e-09
7.0085315e-13
-9.2520024e-10
1.4350589e-13
-4.2139526e-10
-1.0954542e-10
-1.549447e-08
-4.3337175e-05
-2.4944783e-08
-3.5717923e-05
-2.2042501e-08
-2.8093606e-05
-9.9187457e-09
-2.0299955e-05
8.4079698e-10
-1.3785833e-05
6.5748521e-09
-9.1252998e-06
8.2302739e-09
-6.0778409e-06
7.8003362e-09
-4.1229021e-06
6.53024e-09
-2.8638342e-06
5.108939e-09
-2.0285287e-06
3.8216593e-09
-1.4254566e-06
2.7769415e-09
-9.7280534e-07
1.9990093e-09
-6.6204868e-07
1.4061783e-09
-4.5498208e-07
9.5765623e-10
-3.1114935e-07
6.3836332e-10
-2.1065627e-07
4.1905079e-10
-1.4178468e-07
2.7127694e-10
-9.4958814e-08
1.7359943e-10
-6.3279921e-08
1.100092e-10
-4.1989686e-08
6.8957277e-11
-2.7746246e-08
4.2539227e-11
-1.822731e-08
2.5664648e-11
-1.1867836e-08
1.4974788e-11
-7.6250379e-09
8.3288271e-12
-4.8036967e-09
4.2991956e-12
-2.9382332e-09
1.9659167e-12
-1.7154461e-09
7.1468749e-13
-9.2395334e-10
1.4638446e-13
-4.2083004e-10
-1.0939904e-10
-1.5511998e-08
-4.3321663e-05
-2.4980054e-08
-3.5708455e-05
-2.2108756e-08
-2.8096477e-05
-9.9725849e-09
-2.0312092e-05
8.2634535e-10
-1.3796631e-05
6.6038565e-09
-9.1310773e-06
8.2675047e-09
-6.0795045e-06
7.8355391e-09
-4.1224702e-06
6.5614331e-09
-2.8625601e-06
5.13551e-09
-2.0271028e-06
3.8425275e-09
-1.4241636e-06
2.7921133e-09
-9.7175495e-07
2.0098057e-09
-6.6126635e-07
1.4139747e-09
-4.5438628e-07
9.6336557e-10
-3.1069872e-07
6.4254764e-10
-2.1033548e-07
4.2207548e-10
-1.4156419e-07
2.7343959e-10
-9.4810203e-08
1.7511951e-10
-6.3181596e-08
1.110639e-10
-4.1925649e-08
6.9664752e-11
-2.7704847e-08
4.3009373e-11
-1.8200666e-08
2.5960253e-11
-1.1850791e-08
1.5158385e-11
-7.6142443e-09
8.4331164e-12
-4.7969767e-09
4.3560359e-12
-2.9341615e-09
1.9920636e-12
-1.7130867e-09
7.2434723e-13
-9.2268996e-10
1.4840367e-13
-4.2025717e-10
-1.0925063e-10
-1.5522882e-08
-4.330614e-05
-2.5011924e-08
-3.5698966e-05
-2.2180482e-08
-2.8099309e-05
-1.0038736e-08
-2.0324233e-05
7.9449825e-10
-1.3807465e-05
6.6134578e-09
-9.1368963e-06
8.2882529e-09
-6.0811793e-06
7.8575434e-09
-4.1220395e-06
6.5814106e-09
-2.861284e-06
5.1525852e-09
-2.025674e-06
3.8558007e-09
-1.4228668e-06
2.8015687e-09
-9.7070074e-07
2.0163235e-09
-6.6048108e-07
1.4186111e-09
-4.5378859e-07
9.6683626e-10
-3.1024693e-07
6.4511988e-10
-2.1001379e-07
4.2397373e-10
-1.4134303e-07
2.7481983e-10
-9.4661071e-08
1.7610725e-10
-6.3082876e-08
1.1175314e-10
-4.1861313e-08
7.0135494e-11
-2.7663228e-08
4.3317712e-11
-1.8173863e-08
2.6157714e-11
-1.1833633e-08
1.5276517e-11
-7.6033736e-09
8.5016408e-12
-4.7902056e-09
4.3914006e-12
-2.9300573e-09
2.0084507e-12
-1.7107077e-09
7.3035369e-13
-9.2141578e-10
1.497095e-13
-4.196793e-10
-1.0910093e-10
-1.5531185e-08
-4.3290609e-05
-2.5044461e-08
-3.5689453e-05
-2.2257361e-08
-2.8102096e-05
-1.0113687e-08
-2.0336377e-05
7.4972941e-10
-1.3818328e-05
6.6099135e-09
-9.1427565e-06
8.2974643e-09
-6.0828668e-06
7.8699477e-09
-4.121612e-06
6.5933413e-09
-2.8600073e-06
5.1629265e-09
-2.0242436e-06
3.8636973e-09
-1.4215675e-06
2.806953e-09
-9.6964401e-07
2.0198786e-09
-6.5969399e-07
1.4211099e-09
-4.5318984e-07
9.6871672e-10
-3.0979451e-07
6.4656419e-10
-2.0969166e-07
4.2507648e-10
-1.4112153e-07
2.7565762e-10
-9.4511675e-08
1.7672306e-10
-6.2983936e-08
1.1219275e-10
-4.1796802e-08
7.044031e-11
-2.7621475e-08
4.3522112e-11
-1.8146958e-08
2.6288122e-11
-1.1816401e-08
1.5356719e-11
-7.5924506e-09
8.5470733e-12
-4.7833991e-09
4.4159632e-12
-2.9259303e-09
2.0195578e-12
-1.7083147e-09
7.3444553e-13
-9.2013382e-10
1.5068058e-13
-4.1909778e-10
-1.0895025e-10
-1.5538872e-08
-4.327507e-05
-2.5079276e-08
-3.5679912e-05
-2.2339045e-08
-2.8104836e-05
-1.0195963e-08
-2.034852e-05
6.9563924e-10
-1.382922e-05
6.5969164e-09
-9.1486578e-06
8.2990059e-09
-6.0845689e-06
7.8756293e-09
-4.1211886e-06
6.5995869e-09
-2.8587313e-06
5.1685287e-09
-2.0228125e-06
3.8678414e-09
-1.4202668e-06
2.8095181e-09
-9.6858571e-07
2.0213837e-09
-6.5890583e-07
1.4220697e-09
-4.5259055e-07
9.6939189e-10
-3.0934181e-07
6.4713996e-10
-2.0936943e-07
4.2555425e-10
-1.4089993e-07
2.760512e-10
-9.4362194e-08
1.7703596e-10
-6.2884913e-08
1.1243085e-10
-4.1732216e-08
7.0613455e-11
-2.7579656e-08
4.3640461e-11
-1.812e-08
2.6366231e-11
-1.1799127e-08
1.5403867e-11
-7.5814973e-09
8.5744584e-12
-4.7765715e-09
4.4286895e-12
-2.9217894e-09
2.0255562e-12
-1.7059132e-09
7.3660281e-13
-9.188471e-10
1.5126026e-13
-4.1851402e-10
-1.0879898e-10
-1.5546849e-08
-4.3259523e-05
-2.5116208e-08
-3.5670343e-05
-2.2425565e-08
-2.8107527e-05
-1.0283833e-08
-2.0360662e-05
6.3479733e-10
-1.3840138e-05
6.5768992e-09
-9.1545999e-06
8.2944609e-09
-6.0862864e-06
7.8765643e-09
-4.1207707e-06
6.601811e-09
-2.8574565e-06
5.1707704e-09
-2.0213815e-06
3.8693463e-09
-1.4189654e-06
2.8101291e-09
-9.6752651e-07
2.0214212e-09
-6.581171e-07
1.4218947e-09
-4.5199104e-07
9.6929283e-10
-3.0888919e-07
6.4714484e-10
-2.090473e-07
4.2562561e-10
-1.406784e-07
2.7615775e-10
-9.4212744e-08
1.7715101e-10
-6.27859e-08
1.1253911e-10
-4.1667619e-08
7.069796e-11
-2.7537814e-08
4.3707388e-11
-1.8093019e-08
2.6412e-11
-1.1781834e-08
1.5436893e-11
-7.5705289e-09
8.5945079e-12
-4.769733e-09
4.4420391e-12
-2.9176412e-09
2.0320984e-12
-1.7035072e-09
7.3914936e-13
-9.1755775e-10
1.5159643e-13
-4.1792902e-10
-1.0864739e-10
-1.5555543e-08
-4.3243967e-05
-2.5154825e-08
-3.5660744e-05
-2.2515906e-08
-2.8110166e-05
-1.0376025e-08
-2.0372802e-05
5.6843281e-10
-1.3851083e-05
6.551654e-09
-9.1605831e-06
8.2853317e-09
-6.0880201e-06
7.8741518e-09
-4.1203596e-06
6.6011504e-09
-2.8561835e-06
5.1705554e-09
-2.0199509e-06
3.86885e-09
-1.4176637e-06
2.8092278e-09
-9.664669e-07
2.0202831e-09
-6.5732814e-07
1.4208534e-09
-4.5139162e-07
9.6860314e-10
-3.0843693e-07
6.4671751e-10
-2.0872543e-07
4.2539506e-10
-1.4045706e-07
2.7604937e-10
-9.4063414e-08
1.7711933e-10
-6.2686962e-08
1.1254277e-10
-4.1603055e-08
7.0712706e-11
-2.7495982e-08
4.3720495e-11
-1.8066037e-08
2.6422787e-11
-1.1764537e-08
1.5442467e-11
-7.559556e-09
8.5975635e-12
-4.7628903e-09
4.4419497e-12
-2.9134899e-09
2.0317684e-12
-1.7010991e-09
7.3891138e-13
-9.1626718e-10
1.5173852e-13
-4.1734347e-10
-1.0849565e-10
-1.5565136e-08
-4.3228402e-05
-2.5195261e-08
-3.5651113e-05
-2.2609238e-08
-2.8112752e-05
-1.0471471e-08
-2.0384939e-05
4.9916737e-10
-1.3862053e-05
6.5226073e-09
-9.1666065e-06
8.2731135e-09
-6.0897706e-06
7.868953e-09
-4.1199554e-06
6.5981881e-09
-2.8549127e-06
5.1684294e-09
-2.0185212e-06
3.8668331e-09
-1.416362e-06
2.8071839e-09
-9.6540726e-07
2.0183433e-09
-6.5653928e-07
1.4192772e-09
-4.5079257e-07
9.674627e-10
-3.079851e-07
6.45982e-10
-2.0840397e-07
4.2495093e-10
-1.4023602e-07
2.7580679e-10
-9.3914286e-08
1.7699677e-10
-6.2588147e-08
1.1248676e-10
-4.1538559e-08
7.0690478e-11
-2.7454184e-08
4.3714334e-11
-1.803907e-08
2.6422406e-11
-1.1747246e-08
1.5444664e-11
-7.5485843e-09
8.5995602e-12
-4.7560472e-09
4.4444086e-12
-2.9093375e-09
2.0328421e-12
-1.69869e-09
7.3933438e-13
-9.1497599e-10
1.5183501e-13
-4.1675762e-10
-1.0834382e-10
-1.5575522e-08
-4.3212827e-05
-2.523766e-08
-3.5641451e-05
-2.2703952e-08
-2.8115285e-05
-1.0568999e-08
-2.0397074e-05
4.2708463e-10
-1.3873049e-05
6.4908107e-09
-9.1726703e-06
8.2586104e-09
-6.0915384e-06
7.8615532e-09
-4.1195584e-06
6.5934987e-09
-2.8536446e-06
5.1649156e-09
-2.0170926e-06
3.8637465e-09
-1.4150609e-06
2.804343e-09
-9.6434787e-07
2.0158572e-09
-6.5575078e-07
1.4172728e-09
-4.50194e-07
9.6595648e-10
-3.0753376e-07
6.4497622e-10
-2.08083e-07
4.2430296e-10
-1.4001533e-07
2.7541755e-10
-9.3765415e-08
1.7676925e-10
-6.2489492e-08
1.123582e-10
-4.1474161e-08
7.0620055e-11
-2.7412444e-08
4.3675178e-11
-1.8012135e-08
2.6400359e-11
-1.1729972e-08
1.5431398e-11
-7.5376212e-09
8.5918567e-12
-4.7492085e-09
4.4384087e-12
-2.9051872e-09
2.0299091e-12
-1.696282e-09
7.3816631e-13
-9.1368524e-10
1.5178839e-13
-4.1617194e-10
-1.0819203e-10
-1.5586401e-08
-4.319724e-05
-2.5281234e-08
-3.5631757e-05
-2.2800242e-08
-2.8117766e-05
-1.0668655e-08
-2.0409206e-05
3.5358554e-10
-1.3884072e-05
6.4565165e-09
-9.1787732e-06
8.242071e-09
-6.0933239e-06
7.8528042e-09
-4.1191691e-06
6.5878593e-09
-2.8523797e-06
5.1606123e-09
-2.0156653e-06
3.8600512e-09
-1.4137603e-06
2.8010773e-09
-9.632889e-07
2.0130351e-09
-6.5496272e-07
1.4149847e-09
-4.4959596e-07
9.6434613e-10
-3.0708311e-07
6.4389146e-10
-2.0776256e-07
4.236035e-10
-1.3979504e-07
2.7498998e-10
-9.3616816e-08
1.7651942e-10
-6.2391018e-08
1.1222004e-10
-4.1409874e-08
7.0546849e-11
-2.737077e-08
4.3641143e-11
-1.7985238e-08
2.6386288e-11
-1.1712719e-08
1.5429089e-11
-7.5266705e-09
8.5937616e-12
-4.7423769e-09
4.4433006e-12
-2.9010409e-09
2.0331369e-12
-1.6938759e-09
7.3963348e-13
-9.1239551e-10
1.5169315e-13
-4.1558668e-10
-1.0804033e-10
-1.5597546e-08
-4.3181643e-05
-2.5324971e-08
-3.5622029e-05
-2.2898035e-08
-2.8120193e-05
-1.0769932e-08
-2.0421334e-05
2.7930204e-10
-1.3895121e-05
6.4203917e-09
-9.1849143e-06
8.223525e-09
-6.0951271e-06
7.8427267e-09
-4.1187883e-06
6.5816026e-09
-2.8511186e-06
5.1557234e-09
-2.0142395e-06
3.8558453e-09
-1.4124604e-06
2.7974279e-09
-9.622305e-07
2.0098932e-09
-6.5417517e-07
1.4124728e-09
-4.4899855e-07
9.6256977e-10
-3.066332e-07
6.4267913e-10
-2.0744268e-07
4.2281102e-10
-1.3957516e-07
2.744828e-10
-9.3468499e-08
1.7620925e-10
-6.2292738e-08
1.120333e-10
-4.1345708e-08
7.0433192e-11
-2.7329169e-08
4.3571302e-11
-1.7958385e-08
2.6342917e-11
-1.1695491e-08
1.5401116e-11
-7.5157346e-09
8.576309e-12
-4.7355538e-09
4.4314366e-12
-2.8968995e-09
2.0269439e-12
-1.6914726e-09
7.3720453e-13
-9.1110719e-10
1.5153368e-13
-4.1500202e-10
-1.078888e-10
-1.5608858e-08
-4.3166034e-05
-2.5368599e-08
-3.5612269e-05
-2.2996735e-08
-2.8122565e-05
-1.0872152e-08
-2.0433459e-05
2.0464925e-10
-1.3906198e-05
6.3829664e-09
-9.1910926e-06
8.2043309e-09
-6.0969484e-06
7.8316302e-09
-4.1184156e-06
6.5744689e-09
-2.8498614e-06
5.150102e-09
-2.0128151e-06
3.8510765e-09
-1.4111614e-06
2.7933716e-09
-9.611728e-07
2.0065086e-09
-6.533883e-07
1.4098455e-09
-4.484019e-07
9.6063245e-10
-3.0618397e-07
6.4137148e-10
-2.0712343e-07
4.2196058e-10
-1.3935574e-07
2.7395041e-10
-9.3320501e-08
1.7588996e-10
-6.2194673e-08
1.118465e-10
-4.1281675e-08
7.0324019e-11
-2.7287645e-08
4.3509706e-11
-1.7931578e-08
2.630899e-11
-1.1678291e-08
1.5383946e-11
-7.5048146e-09
8.5681525e-12
-4.7287398e-09
4.4295806e-12
-2.8927632e-09
2.0263903e-12
-1.6890721e-09
7.3713114e-13
-9.0982029e-10
1.5138839e-13
-4.1441795e-10
-1.0773741e-10
-1.5620176e-08
-4.3150414e-05
-2.5412429e-08
-3.5602477e-05
-2.3095619e-08
-2.8124882e-05
-1.0975361e-08
-2.0445579e-05
1.3108984e-10
-1.3917304e-05
6.344808e-09
-9.1973063e-06
8.1844872e-09
-6.0987881e-06
7.8199204e-09
-4.118051e-06
6.5664117e-09
-2.8486079e-06
5.1437786e-09
-2.0113925e-06
3.8457931e-09
-1.4098634e-06
2.7889251e-09
-9.6011594e-07
2.0028606e-09
-6.5260222e-07
1.4069863e-09
-4.4780603e-07
9.5851946e-10
-3.0573549e-07
6.3992254e-10
-2.0680484e-07
4.2099318e-10
-1.391368e-07
2.733339e-10
-9.3172851e-08
1.7550217e-10
-6.2096835e-08
1.1160703e-10
-4.1217788e-08
7.0175786e-11
-2.7246211e-08
4.3417659e-11
-1.7904826e-08
2.6251649e-11
-1.1661125e-08
1.5348398e-11
-7.4939147e-09
8.5462035e-12
-4.7219376e-09
4.4149107e-12
-2.8886339e-09
2.0190455e-12
-1.6866755e-09
7.3424588e-13
-9.0853542e-10
1.5114543e-13
-4.138348e-10
-1.0758627e-10
-1.5631301e-08
-4.3134782e-05
-2.5456609e-08
-3.5592652e-05
-2.3193729e-08
-2.8127145e-05
-1.1078919e-08
-2.0457694e-05
5.7852913e-11
-1.3928441e-05
6.3055465e-09
-9.203554e-06
8.1637953e-09
-6.1006463e-06
7.8080893e-09
-4.1176953e-06
6.5580401e-09
-2.8473578e-06
5.1371685e-09
-2.0099716e-06
3.8402782e-09
-1.4085665e-06
2.7843154e-09
-9.5905998e-07
1.9990711e-09
-6.5181697e-07
1.4039981e-09
-4.4721097e-07
9.5643194e-10
-3.0528792e-07
6.3849838e-10
-2.0648692e-07
4.2005695e-10
-1.3891835e-07
2.7274668e-10
-9.3025552e-08
1.7514201e-10
-6.1999228e-08
1.1139264e-10
-4.1154049e-08
7.0052768e-11
-2.7204871e-08
4.335046e-11
-1.7878131e-08
2.6217911e-11
-1.1643994e-08
1.5334434e-11
-7.483037e-09
8.5423988e-12
-4.7151488e-09
4.417565e-12
-2.8845124e-09
2.0215005e-12
-1.6842834e-09
7.3545493e-13
-9.072529e-10
1.5087569e-13
-4.1325272e-10
-1.0743539e-10
-1.564198e-08
-4.311914e-05
-2.5500201e-08
-3.5582794e-05
-2.3291783e-08
-2.8129353e-05
-1.1183167e-08
-2.0469802e-05
-1.4529613e-11
-1.393961e-05
6.2657561e-09
-9.2098343e-06
8.142502e-09
-6.1025231e-06
7.7958346e-09
-4.1173487e-06
6.5492272e-09
-2.8461112e-06
5.130166e-09
-2.0085526e-06
3.8344457e-09
-1.4072707e-06
2.7794696e-09
-9.5800501e-07
1.9950648e-09
-6.5103255e-07
1.4008625e-09
-4.4661677e-07
9.5418763e-10
-3.0484123e-07
6.369536e-10
-2.0616969e-07
4.1902917e-10
-1.3870042e-07
2.7207573e-10
-9.2878606e-08
1.7471526e-10
-6.1901863e-08
1.1112359e-10
-4.1090464e-08
6.9882928e-11
-2.7163629e-08
4.3243006e-11
-1.7851497e-08
2.6148701e-11
-1.16269e-08
1.5289931e-11
-7.4721818e-09
8.5143089e-12
-4.7083738e-09
4.3987188e-12
-2.8803991e-09
2.011682e-12
-1.681896e-09
7.3155605e-13
-9.0597285e-10
1.5057517e-13
-4.126718e-10
-1.0728482e-10
-1.565194e-08
-4.3103489e-05
-2.5542397e-08
-3.5572903e-05
-2.3389827e-08
-2.8131506e-05
-1.1287695e-08
-2.0481905e-05
-8.7384902e-11
-1.395081e-05
6.2256475e-09
-9.2161473e-06
8.1211804e-09
-6.1044186e-06
7.7830278e-09
-4.1170105e-06
6.5399895e-09
-2.8448681e-06
5.1228294e-09
-2.0071354e-06
3.8283668e-09
-1.4059763e-06
2.7744803e-09
-9.5695113e-07
1.9910257e-09
-6.5024909e-07
1.3977656e-09
-4.4602352e-07
9.5189334e-10
-3.0439535e-07
6.353982e-10
-2.058532e-07
4.1801334e-10
-1.3848303e-07
2.7143178e-10
-9.2732033e-08
1.7432489e-10
-6.1804752e-08
1.1089193e-10
-4.1027038e-08
6.9748166e-11
-2.7122484e-08
4.3166699e-11
-1.782492e-08
2.6107507e-11
-1.160984e-08
1.5269452e-11
-7.4613472e-09
8.5055494e-12
-4.701611e-09
4.3975852e-12
-2.8762926e-09
2.0117204e-12
-1.6795123e-09
7.3175463e-13
-9.0469477e-10
1.5035884e-13
-4.1209174e-10
-1.0713446e-10
-1.5661117e-08
-4.3087827e-05
-2.5583369e-08
-3.5562981e-05
-2.3487372e-08
-2.8133602e-05
-1.139194e-08
-2.0494e-05
-1.6081771e-10
-1.3962041e-05
6.1852192e-09
-9.2224934e-06
8.0995535e-09
-6.1063329e-06
7.7700688e-09
-4.116681e-06
6.5306074e-09
-2.8436287e-06
5.1153522e-09
-2.0057201e-06
3.8221482e-09
-1.4046831e-06
2.7693828e-09
-9.5589837e-07
1.9869209e-09
-6.4946662e-07
1.3945647e-09
-4.4543117e-07
9.4955218e-10
-3.0395033e-07
6.3378002e-10
-2.0553744e-07
4.1692691e-10
-1.3826617e-07
2.7073079e-10
-9.2585841e-08
1.7388468e-10
-6.17079e-08
1.1062039e-10
-4.0963777e-08
6.9579085e-11
-2.708144e-08
4.3062777e-11
-1.7798407e-08
2.6042309e-11
-1.1592819e-08
1.5229034e-11
-7.4505351e-09
8.4803891e-12
-4.6948616e-09
4.3809796e-12
-2.872194e-09
2.0032955e-12
-1.677133e-09
7.2846706e-13
-9.0341896e-10
1.5010272e-13
-4.1151268e-10
-1.0698435e-10
-1.5669552e-08
-4.3072158e-05
-2.5623455e-08
-3.5553027e-05
-2.3583483e-08
-2.8135642e-05
-1.1496096e-08
-2.0506087e-05
-2.3402712e-10
-1.3973303e-05
6.1444793e-09
-9.2288719e-06
8.0774166e-09
-6.1082659e-06
7.7572113e-09
-4.1163608e-06
6.521207e-09
-2.8423927e-06
5.1078259e-09
-2.0043068e-06
3.815902e-09
-1.4033911e-06
2.7642613e-09
-9.5484673e-07
1.9827678e-09
-6.4868512e-07
1.3913091e-09
-4.4483971e-07
9.4727192e-10
-3.0350629e-07
6.3220605e-10
-2.0522238e-07
4.1587791e-10
-1.3804984e-07
2.7006553e-10
-9.244004e-08
1.7347433e-10
-6.1611309e-08
1.103758e-10
-4.0900689e-08
6.9438664e-11
-2.7040504e-08
4.2985798e-11
-1.7771962e-08
2.6004979e-11
-1.157584e-08
1.5213605e-11
-7.4397497e-09
8.4771824e-12
-4.6881284e-09
4.3849932e-12
-2.8681052e-09
2.0068875e-12
-1.6747592e-09
7.3023738e-13
-9.0214612e-10
1.4977199e-13
-4.1093492e-10
-1.0683458e-10
-1.5677104e-08
-4.3056481e-05
-2.566269e-08
-3.5543041e-05
-2.3677681e-08
-2.8137627e-05
-1.1599288e-08
-2.0518166e-05
-3.078623e-10
-1.3984594e-05
6.103452e-09
-9.2352832e-06
8.0552101e-09
-6.1102176e-06
7.7439923e-09
-4.1160496e-06
6.5114963e-09
-2.8411602e-06
5.1000602e-09
-2.0028953e-06
3.8094935e-09
-1.4021006e-06
2.7590141e-09
-9.5379626e-07
1.978484e-09
-6.4790458e-07
1.3879746e-09
-4.4424921e-07
9.4484611e-10
-3.0306315e-07
6.305149e-10
-2.0490806e-07
4.1472845e-10
-1.3783405e-07
2.6930167e-10
-9.229462e-08
1.7297308e-10
-6.1514977e-08
1.100517e-10
-4.0837773e-08
6.9228684e-11
-2.699968e-08
4.2850433e-11
-1.7745588e-08
2.5916558e-11
-1.1558907e-08
1.5156801e-11
-7.4289926e-09
8.4407371e-12
-4.6814128e-09
4.3607792e-12
-2.864027e-09
1.9942767e-12
-1.6723917e-09
7.2527107e-13
-9.0087659e-10
1.4937495e-13
-4.1035865e-10
-1.0668521e-10
-1.5683572e-08
-4.3040797e-05
-2.5700223e-08
-3.5533025e-05
-2.3770823e-08
-2.8139556e-05
-1.1702456e-08
-2.0530234e-05
-3.814139e-10
-1.3995916e-05
6.0621822e-09
-9.2417268e-06
8.0327788e-09
-6.1121882e-06
7.7301843e-09
-4.115747e-06
6.5017789e-09
-2.8399318e-06
5.0923168e-09
-2.0014859e-06
3.8031382e-09
-1.4008114e-06
2.7538687e-09
-9.5274699e-07
1.9743655e-09
-6.4712507e-07
1.3848349e-09
-4.4365968e-07
9.4251942e-10
-3.0262083e-07
6.2893712e-10
-2.0459448e-07
4.1369539e-10
-1.376188e-07
2.6863872e-10
-9.2149569e-08
1.7256255e-10
-6.1418898e-08
1.0980143e-10
-4.0775018e-08
6.9080494e-11
-2.6958958e-08
4.2764712e-11
-1.7719276e-08
2.5870254e-11
-1.1542012e-08
1.5133951e-11
-7.4182595e-09
8.4312585e-12
-4.6747113e-09
4.3600758e-12
-2.8599572e-09
1.9948184e-12
-1.6700289e-09
7.2570922e-13
-8.9960956e-10
1.4908707e-13
-4.097835e-10
-1.0653612e-10
-1.5688885e-08
-4.3025108e-05
-2.5735266e-08
-3.5522978e-05
-2.3863129e-08
-2.8141428e-05
-1.1805262e-08
-2.0542292e-05
-4.5529812e-10
-1.4007265e-05
6.0203785e-09
-9.2482025e-06
8.0098821e-09
-6.1141777e-06
7.7162803e-09
-4.1154534e-06
6.492328e-09
-2.8387078e-06
5.0847255e-09
-2.0000783e-06
3.7968716e-09
-1.3995235e-06
2.7488e-09
-9.5169892e-07
1.9703367e-09
-6.463466e-07
1.381714e-09
-4.4307106e-07
9.4028572e-10
-3.021794e-07
6.2740289e-10
-2.042816e-07
4.1267206e-10
-1.3740406e-07
2.6797445e-10
-9.2004874e-08
1.7214219e-10
-6.132306e-08
1.095372e-10
-4.0712414e-08
6.8913224e-11
-2.6918331e-08
4.2659463e-11
-1.7693023e-08
2.5801971e-11
-1.1525153e-08
1.5090553e-11
-7.407548e-09
8.403342e-12
-4.6680228e-09
4.3409714e-12
-2.855895e-09
1.984909e-12
-1.6676704e-09
7.2177014e-13
-8.9834477e-10
1.4882025e-13
-4.0920938e-10
-1.063873e-10
-1.5693138e-08
-4.3009415e-05
-2.5768094e-08
-3.5512903e-05
-2.3954059e-08
-2.8143242e-05
-1.1907313e-08
-2.0554339e-05
-5.2908562e-10
-1.4018644e-05
5.9786825e-09
-9.2547102e-06
7.9868325e-09
-6.1161859e-06
7.7025205e-09
-4.1151691e-06
6.482725e-09
-2.837488e-06
5.0770263e-09
-1.9986726e-06
3.7905624e-09
-1.398237e-06
2.7437351e-09
-9.506521e-07
1.9663078e-09
-6.4556917e-07
1.3785992e-09
-4.4248336e-07
9.3813218e-10
-3.0173893e-07
6.2593532e-10
-2.0396941e-07
4.1170721e-10
-1.3718983e-07
2.6737244e-10
-9.1860549e-08
1.7178211e-10
-6.1227471e-08
1.0932726e-10
-4.0649969e-08
6.8797085e-11
-2.6877802e-08
4.259783e-11
-1.7666832e-08
2.5774992e-11
-1.1508333e-08
1.5081698e-11
-7.3968604e-09
8.4048322e-12
-4.6613492e-09
4.3481602e-12
-2.8518415e-09
1.9902125e-12
-1.665317e-09
7.2418138e-13
-8.9708265e-10
1.4851453e-13
-4.0863649e-10
-1.0623878e-10
-1.5696338e-08
-4.2993719e-05
-2.57993e-08
-3.55028e-05
-2.4042721e-08
-2.8144999e-05
-1.2008745e-08
-2.0566373e-05
-6.0225327e-10
-1.403005e-05
5.937128e-09
-9.2612496e-06
7.9642446e-09
-6.118213e-06
7.6887492e-09
-4.1148936e-06
6.4727552e-09
-2.836272e-06
5.0690614e-09
-1.9972689e-06
3.7840585e-09
-1.396952e-06
2.7385147e-09
-9.4960656e-07
1.9621044e-09
-6.4479276e-07
1.3753651e-09
-4.4189663e-07
9.3576567e-10
-3.0129932e-07
6.2429657e-10
-2.0365795e-07
4.1059655e-10
-1.3697613e-07
2.666443e-10
-9.1716602e-08
1.7130821e-10
-6.1132133e-08
1.0902458e-10
-4.0587689e-08
6.8599663e-11
-2.6837377e-08
4.24708e-11
-1.7640706e-08
2.5690556e-11
-1.1491553e-08
1.5026587e-11
-7.3861982e-09
8.3686725e-12
-4.6546913e-09
4.3233173e-12
-2.8477974e-09
1.9770088e-12
-1.6629689e-09
7.1892206e-13
-8.958234e-10
1.481701e-13
-4.0806491e-10
-1.0609061e-10
-1.5698307e-08
-4.2978021e-05
-2.5828996e-08
-3.549267e-05
-2.4129001e-08
-2.8146699e-05
-1.2108623e-08
-2.0578393e-05
-6.7570285e-10
-1.4041483e-05
5.8955658e-09
-9.2678209e-06
7.9415814e-09
-6.120259e-06
7.674944e-09
-4.114627e-06
6.4626324e-09
-2.8350597e-06
5.0609761e-09
-1.9958672e-06
3.7774605e-09
-1.3956685e-06
2.7332399e-09
-9.4856234e-07
1.9579096e-09
-6.4401742e-07
1.3721732e-09
-4.413109e-07
9.3341198e-10
-3.0086056e-07
6.2270455e-10
-2.0334725e-07
4.0955957e-10
-1.3676298e-07
2.6598482e-10
-9.1573033e-08
1.7090224e-10
-6.1037049e-08
1.0878263e-10
-4.0525575e-08
6.8459328e-11
-2.6797053e-08
4.2392529e-11
-1.7614643e-08
2.5650491e-11
-1.1474811e-08
1.5008293e-11
-7.3755588e-09
8.362775e-12
-4.6480471e-09
4.3253872e-12
-2.8437613e-09
1.9791157e-12
-1.6606253e-09
7.2001685e-13
-8.9456648e-10
1.4791247e-13
-4.0749436e-10
-1.059427e-10
-1.5698852e-08
-4.2962322e-05
-2.5856364e-08
-3.5482512e-05
-2.4213656e-08
-2.8148342e-05
-1.2208177e-08
-2.0590399e-05
-7.4861287e-10
-1.4052943e-05
5.8538168e-09
-9.2744233e-06
7.9186745e-09
-6.1223238e-06
7.6613558e-09
-4.1143697e-06
6.4524842e-09
-2.8338508e-06
5.0527862e-09
-1.9944675e-06
3.7707371e-09
-1.3943865e-06
2.7278428e-09
-9.4751945e-07
1.9536355e-09
-6.4324321e-07
1.3688603e-09
-4.4072612e-07
9.3105589e-10
-3.0042275e-07
6.210739e-10
-2.0303727e-07
4.0846717e-10
-1.3655037e-07
2.6526743e-10
-9.1429834e-08
1.7044175e-10
-6.094222e-08
1.0849037e-10
-4.0463624e-08
6.8273747e-11
-2.6756835e-08
4.2275599e-11
-1.7588644e-08
2.5574675e-11
-1.1458109e-08
1.4960196e-11
-7.3649436e-09
8.3316727e-12
-4.6414174e-09
4.3044162e-12
-2.8397339e-09
1.9681821e-12
-1.6582865e-09
7.1572093e-13
-8.9331213e-10
1.4762497e-13
-4.0692492e-10
-1.0579508e-10
-1.5697943e-08
-4.2946624e-05
-2.5880674e-08
-3.547233e-05
-2.4297106e-08
-2.8149925e-05
-1.2306878e-08
-2.0602389e-05
-8.2153819e-10
-1.4064428e-05
5.812135e-09
-9.281057e-06
7.8957518e-09
-6.1244075e-06
7.6475762e-09
-4.1141215e-06
6.4421086e-09
-2.8326454e-06
5.0444354e-09
-1.9930699e-06
3.7639434e-09
-1.393106e-06
2.7224512e-09
-9.4647796e-07
1.9493984e-09
-6.4247016e-07
1.3656028e-09
-4.4014234e-07
9.2879041e-10
-2.9998594e-07
6.1952024e-10
-2.0272801e-07
4.0744041e-10
-1.3633829e-07
2.6461707e-10
-9.1287024e-08
1.7005033e-10
-6.0847658e-08
1.0825877e-10
-4.0401845e-08
6.8146884e-11
-2.6716728e-08
4.2208653e-11
-1.7562716e-08
2.5547599e-11
-1.1441452e-08
1.4953104e-11
-7.3543566e-09
8.3357419e-12
-4.6348048e-09
4.3144312e-12
-2.8357168e-09
1.9755071e-12
-1.6559537e-09
7.1904822e-13
-8.9206096e-10
1.4726221e-13
-4.0635688e-10
-1.0564782e-10
-1.5695702e-08
-4.2930928e-05
-2.5902267e-08
-3.5462123e-05
-2.4378797e-08
-2.8151449e-05
-1.2404769e-08
-2.0614363e-05
-8.9430138e-10
-1.4075938e-05
5.7705209e-09
-9.2877218e-06
7.8730696e-09
-6.12651e-06
7.6336232e-09
-4.1138821e-06
6.4315962e-09
-2.8314433e-06
5.0360065e-09
-1.9916743e-06
3.7571113e-09
-1.3918271e-06
2.7170378e-09
-9.454379e-07
1.9450926e-09
-6.4169821e-07
1.3623012e-09
-4.3955955e-07
9.2633687e-10
-2.9954998e-07
6.178022e-10
-2.0241948e-07
4.0625436e-10
-1.3612675e-07
2.6382737e-10
-9.1144605e-08
1.6952986e-10
-6.0753362e-08
1.0791818e-10
-4.0340238e-08
6.7921019e-11
-2.6676732e-08
4.2060528e-11
-1.7536859e-08
2.5447291e-11
-1.1424841e-08
1.4886802e-11
-7.3437986e-09
8.2913583e-12
-4.62821e-09
4.2834593e-12
-2.8317106e-09
1.9589097e-12
-1.6536273e-09
7.1242214e-13
-8.908132e-10
1.4684998e-13
-4.0579041e-10
-1.0550097e-10
-1.5692193e-08
-4.2915236e-05
-2.592182e-08
-3.5451893e-05
-2.4457949e-08
-2.8152912e-05