/*--------------------------------*- C++ -*----------------------------------*\
| =========                 |                                                 |
| \\      /  F ield         | OpenFOAM: The Open Source CFD Toolbox           |
|  \\    /   O peration     | Version:  v2012                                 |
|   \\  /    A nd           | Website:  www.openfoam.com                      |
|    \\/     M anipulation  |                                                 |
\*---------------------------------------------------------------------------*/
FoamFile
{
    version     2.0;
    format      ascii;
    class       volScalarField;
    location    "700";
    object      rho;
}
// * * * * * * * * * * * * * * * * * * * * * * * * * * * * * * * * * * * * * //

dimensions      [1 -3 0 0 0 0 0];


internalField   nonuniform List<scalar> 
24000
(
22.25172
21.883989
20.288409
17.045605
13.304615
10.052546
7.6392079
5.9408978
4.7804408
3.9740456
3.3222893
2.7579736
2.3491932
2.0716313
1.8675502
1.7135258
1.5988807
1.5129684
1.4478333
1.3980469
1.3596643
1.3297397
1.3061487
1.2873715
1.2723096
1.2601542
1.2502981
1.2422781
1.2357352
1.2303883
22.253581
21.888046
20.300273
17.065905
13.324671
10.066103
7.6481269
5.9458073
4.7825919
3.9745998
3.3220473
2.7574018
2.3485436
2.0708818
1.8667523
1.7127646
1.5981815
1.512337
1.4472675
1.3975386
1.3592028
1.3293152
1.3057527
1.2869976
1.2719526
1.2598102
1.249964
1.2419515
1.2354142
1.2300713
22.255478
21.892189
20.312443
17.08623
13.344285
10.079802
7.6564095
5.9499935
4.7840928
3.9746927
3.3214897
2.7565386
2.3476233
2.0699179
1.8657969
1.7118911
1.5974055
1.5116501
1.4466585
1.3969959
1.3587131
1.3288664
1.3053352
1.2866039
1.271577
1.2594482
1.2496124
1.2416076
1.2350762
1.2297375
22.257376
21.896374
20.324608
17.106453
13.363743
10.09349
7.6644442
5.9539502
4.7854684
3.9747135
3.3208605
2.7556373
2.3467139
2.0690033
1.8649233
1.7111271
1.5967542
1.5110928
1.4461757
1.3965702
1.3583294
1.3285138
1.3050059
1.2862922
1.2712788
1.2591603
1.2493324
1.2413337
1.2348069
1.2294716
22.259271
21.900567
20.336751
17.126621
13.383156
10.107172
7.6723258
5.9577553
4.7867298
3.9746434
3.3201432
2.7546555
2.3457418
2.0680416
1.8640103
1.7103252
1.5960629
1.5104933
1.4456501
1.3961026
1.3579059
1.3281236
1.3046409
1.2859464
1.2709477
1.2588406
1.2490214
1.2410294
1.2345076
1.2291759
22.26116
21.904755
20.348849
17.14675
13.402575
10.120858
7.6801332
5.9614785
4.7879261
3.9745193
3.3193693
2.7536202
2.3447283
2.06705
1.863075
1.7095061
1.5953583
1.5098831
1.4451156
1.395627
1.357475
1.3277261
1.3042687
1.2855933
1.2706095
1.2585137
1.2487032
1.2407179
1.2342011
1.2288732
22.263042
21.908927
20.3609
17.166857
13.422013
10.134568
7.687901
5.9651537
4.78908
3.9743585
3.3185548
2.7525446
2.343683
2.066035
1.8621219
1.708672
1.5946412
1.5092621
1.4445714
1.3951427
1.357036
1.327321
1.303889
1.2852331
1.2702641
1.2581799
1.2483783
1.2403997
1.233888
1.2285641
22.264916
21.913081
20.372904
17.186945
13.441481
10.14831
7.6956558
5.9688011
4.7902093
3.9741733
3.3177122
2.751441
2.3426158
2.065004
1.8611565
1.7078284
1.5939162
1.5086347
1.4440213
1.3946531
1.3565919
1.3269111
1.3035047
1.2848684
1.2699144
1.2578417
1.2480489
1.2400772
1.2335707
1.2282507
22.266783
21.917212
20.384859
17.207026
13.460979
10.162095
7.703411
5.9724341
4.7913229
3.9739714
3.3168501
2.7503178
2.3415332
2.0639618
1.8601827
1.7069786
1.5931862
1.508003
1.4434677
1.3941603
1.3561448
1.3264982
1.3031177
1.2845009
1.2695618
1.2575007
1.2477169
1.239752
1.2332508
1.2279348
22.268641
21.921319
20.396768
17.227098
13.480511
10.175929
7.711176
5.9760627
4.7924272
3.9737583
3.3159743
2.7491811
2.3404398
2.062912
1.8592038
1.706125
1.5924532
1.5073687
1.442912
1.3936655
1.3556957
1.3260834
1.3027287
1.2841316
1.2692075
1.2571579
1.2473831
1.239425
1.2329292
1.227617
22.270491
21.925403
20.408629
17.24717
13.50008
10.189815
7.7189595
5.9796937
4.7935267
3.9735379
3.3150891
2.748035
2.3393393
2.0618579
1.8582227
1.7052694
1.5917188
1.5067333
1.4423553
1.3931697
1.3552458
1.3256677
1.3023388
1.2837613
1.2688523
1.2568142
1.2470483
1.2390971
1.2326065
1.2272983
22.272333
21.929462
20.420446
17.26724
13.519682
10.203759
7.7267624
5.9833305
4.7946247
3.973313
3.3141973
2.7468821
2.3382341
2.0608012
1.8572398
1.704413
1.5909839
1.5060976
1.4417981
1.3926734
1.3547955
1.3252516
1.3019484
1.2833905
1.2684966
1.25647
1.246713
1.2387688
1.2322834
1.2269791
22.274166
21.933497
20.432221
17.287312
13.539324
10.217761
7.7345924
5.9869751
4.7957232
3.9730855
3.3133011
2.7457246
2.3371259
2.0597427
1.856256
1.7035568
1.5902491
1.5054621
1.441241
1.3921773
1.3543452
1.3248355
1.3015581
1.2830197
1.2681408
1.2561258
1.2463777
1.2384403
1.2319601
1.2266598
22.275991
21.937508
20.443954
17.307387
13.559
10.231824
7.7424473
5.9906305
4.7968238
3.9728569
3.312402
2.7445642
2.3360155
2.0586833
1.8552728
1.7027009
1.5895149
1.504827
1.4406845
1.3916817
1.3538952
1.3244197
1.3011679
1.282649
1.267785
1.2557817
1.2460425
1.2381119
1.2316369
1.2263406
22.277808
21.941495
20.455642
17.327466
13.578715
10.245948
7.750333
5.9942999
4.7979278
3.9726282
3.3115009
2.7434018
2.3349041
2.0576242
1.854291
1.7018462
1.5887819
1.5041929
1.4401291
1.3911869
1.3534458
1.3240044
1.3007782
1.2822788
1.2674297
1.2554379
1.2457076
1.2377839
1.2313141
1.2260217
22.279616
21.945458
20.467287
17.34755
13.598469
10.260134
7.7582475
5.9979824
4.7990361
3.9724002
3.3105989
2.7422383
2.3337926
2.0565659
1.8533098
1.700993
1.5880502
1.5035601
1.4395745
1.3906928
1.3529972
1.3235897
1.3003891
1.2819092
1.2670749
1.2550945
1.2453731
1.2374562
1.2309917
1.2257033
22.281416
21.949398
20.478893
17.367639
13.618261
10.274384
7.766194
6.0016789
4.8001494
3.9721735
3.3096964
2.7410742
2.3326811
2.0555084
1.85233
1.7001414
1.5873199
1.5029288
1.439021
1.3901997
1.3525496
1.3231759
1.3000008
1.2815402
1.2667208
1.2547518
1.2450392
1.2371291
1.2306699
1.2253854
22.283207
21.953315
20.490458
17.387735
13.638096
10.288694
7.7741728
6.0053914
4.8012691
3.9719486
3.3087939
2.73991
2.33157
2.0544518
1.8513525
1.6992914
1.5865911
1.5022986
1.4384687
1.3897077
1.3521028
1.3227628
1.2996131
1.2811718
1.2663673
1.2544097
1.2447059
1.2368025
1.2303486
1.2250679
22.284991
21.957208
20.501981
17.407835
13.65797
10.303066
7.7821836
6.0091214
4.8023973
3.9717257
3.3078918
2.7387463
2.3304596
2.0533968
1.8503769
1.6984434
1.5858642
1.50167
1.4379179
1.3892169
1.3516571
1.3223508
1.2992264
1.2808043
1.2660146
1.2540683
1.2443733
1.2364768
1.2300279
1.2247512
22.286766
21.961079
20.513461
17.427943
13.677889
10.317498
7.7902292
6.0128671
4.8035325
3.9715053
3.3069905
2.737583
2.3293504
2.0523436
1.8494028
1.6975976
1.5851392
1.501043
1.4373685
1.3887273
1.3512124
1.3219397
1.2988404
1.2804376
1.2656626
1.2537277
1.2440414
1.2361517
1.2297079
1.2244351
22.288533
21.964926
20.5249
17.448057
13.697853
10.33199
7.7983069
6.0166294
4.8046746
3.9712874
3.3060901
2.7364206
2.3282424
2.0512918
1.8484307
1.6967538
1.584416
1.5004179
1.4368206
1.3882391
1.3507689
1.3215296
1.2984556
1.2800718
1.2653114
1.253388
1.2437104
1.2358274
1.2293887
1.2241198
22.290293
21.96875
20.5363
17.468177
13.717863
10.346539
7.8064209
6.0204104
4.8058236
3.9710724
3.305191
2.7352592
2.3271355
2.0502418
1.8474617
1.695912
1.5836946
1.4997943
1.436274
1.3877521
1.3503265
1.3211205
1.2980716
1.2797069
1.2649611
1.2530489
1.2433801
1.2355038
1.2290702
1.2238053
22.292044
21.97255
20.547659
17.488304
13.737925
10.361142
7.8145675
6.0242098
4.8069798
3.9708603
3.3042932
2.7340992
2.3260301
2.0491938
1.8464946
1.6950725
1.5829753
1.4991724
1.4357289
1.3872663
1.3498853
1.3207125
1.2976886
1.279343
1.2646117
1.2527108
1.2430507
1.235181
1.2287526
1.2234916
22.293787
21.976328
20.558975
17.508436
13.758035
10.375802
7.8227511
6.028026
4.8081432
3.9706514
3.303397
2.7329406
2.3249266
2.048148
1.8455293
1.6942354
1.582258
1.4985522
1.4351855
1.3867819
1.3494453
1.3203056
1.2973066
1.2789799
1.2642632
1.2523734
1.242722
1.2348589
1.2284358
1.2231785
22.295523
21.980081
20.570248
17.528575
13.778197
10.390515
7.8309683
6.0318607
4.809314
3.9704457
3.3025023
2.7317835
2.3238247
2.0471039
1.8445665
1.6934004
1.5815427
1.4979339
1.4346437
1.386299
1.3490065
1.3198998
1.2969257
1.2786178
1.2639157
1.252037
1.2423941
1.2345378
1.2281197
1.2228663
22.297251
21.983809
20.58148
17.548718
13.798409
10.405285
7.8392226
6.0357155
4.8104923
3.9702432
3.3016095
2.7306279
2.3227244
2.0460619
1.8436069
1.6925675
1.5808292
1.4973174
1.4341032
1.3858174
1.3485688
1.3194951
1.2965456
1.2782566
1.2635689
1.2517014
1.2420671
1.2342174
1.2278044
1.2225547
22.298971
21.987514
20.592673
17.568867
13.81867
10.420111
7.847512
6.0395884
4.8116781
3.9700442
3.3007185
2.7294741
2.3216257
2.0450221
1.842649
1.6917371
1.580118
1.4967026
1.4335644
1.3853371
1.3481325
1.3190915
1.2961667
1.2778964
1.2632231
1.2513667
1.241741
1.233898
1.2274899
1.2222441
22.300683
21.991195
20.603824
17.58902
13.838983
10.434992
7.8558381
6.0434797
4.8128733
3.9698487
3.2998295
2.7283222
2.3205292
2.0439845
1.8416931
1.6909091
1.5794088
1.4960895
1.433027
1.3848582
1.3476973
1.318689
1.2957888
1.2775372
1.2628782
1.251033
1.2414158
1.2335793
1.2271762
1.2219343
22.302388
21.994851
20.614931
17.609178
13.859343
10.449929
7.8642011
6.047391
4.814078
3.9696568
3.2989426
2.7271721
2.3194346
2.0429488
1.8407402
1.6900832
1.5787016
1.4954782
1.4324914
1.3843806
1.3472634
1.3182876
1.295412
1.277179
1.2625343
1.2507001
1.2410915
1.2332615
1.2268634
1.2216254
22.304085
21.998483
20.625994
17.62934
13.879756
10.464921
7.8726003
6.0513227
4.8152915
3.9694684
3.2980577
2.7260239
2.3183418
2.0419153
1.83979
1.6892594
1.5779963
1.4948688
1.4319573
1.3839044
1.3468307
1.3178872
1.295036
1.2768217
1.2621912
1.2503679
1.2407679
1.2329444
1.2265514
1.2213172
22.305775
22.002091
20.637015
17.649504
13.900216
10.47997
7.8810378
6.055273
4.816513
3.9692837
3.297175
2.7248777
2.3172506
2.0408839
1.8388414
1.688438
1.5772929
1.4942612
1.4314246
1.3834296
1.3463991
1.3174881
1.2946612
1.2764654
1.2618491
1.2500367
1.2404451
1.2326282
1.2262403
1.2210098
22.307457
22.005674
20.647997
17.669673
13.920726
10.495076
7.8895114
6.0592429
4.8177425
3.9691027
3.2962945
2.7237336
2.3161616
2.0398547
1.8378948
1.6876189
1.5765917
1.493655
1.4308934
1.3829561
1.3459687
1.31709
1.2942873
1.2761099
1.2615079
1.2497064
1.2401232
1.2323128
1.22593
1.2207031
22.309132
22.009233
20.658935
17.689843
13.941288
10.510238
7.8980242
6.063234
4.81898
3.9689255
3.2954164
2.7225917
2.3150748
2.0388275
1.8369517
1.686802
1.5758924
1.4930506
1.4303637
1.3824839
1.3455395
1.316693
1.2939144
1.2757555
1.2611676
1.249377
1.2398022
1.2319983
1.2256204
1.2203973
22.310799
22.012769
20.669829
17.710016
13.961895
10.525456
7.9065733
6.067245
4.8202254
3.9687522
3.2945408
2.721452
2.31399
2.0378026
1.8360108
1.6859871
1.575195
1.492448
1.4298355
1.3820129
1.3451115
1.3162969
1.2935426
1.2754019
1.2608281
1.2490484
1.2394819
1.2316846
1.2253115
1.2200922
22.312459
22.01628
20.680678
17.73019
13.982555
10.540731
7.9151624
6.0712755
4.8214787
3.9685828
3.2936678
2.7203146
2.3129071
2.0367799
1.8350717
1.6851747
1.5744995
1.4918474
1.4293091
1.3815434
1.3446848
1.3159021
1.2931718
1.2750494
1.2604895
1.2487208
1.2391627
1.2313718
1.2250035
1.2197879
22.314112
22.019767
20.691483
17.750366
14.003261
10.556063
7.9237881
6.0753271
4.8227411
3.9684175
3.2927974
2.7191796
2.3118264
2.0357594
1.8341345
1.6843646
1.5738062
1.4912483
1.428784
1.3810752
1.3442592
1.3155082
1.2928019
1.2746978
1.2601519
1.2483939
1.2388442
1.2310597
1.2246963
1.2194846
22.315757
22.023229
20.702248
17.770542
14.024016
10.571453
7.9324543
6.0794003
4.8240136
3.9682561
3.2919295
2.7180469
2.3107478
2.0347408
1.833201
1.6835565
1.5731148
1.4906508
1.4282604
1.3806084
1.3438348
1.3151156
1.2924331
1.2743472
1.2598152
1.2480679
1.2385266
1.2307485
1.2243901
1.219182
22.317396
22.026668
20.71297
17.790717
14.044821
10.586899
7.9411579
6.0834934
4.8252956
3.9680987
3.2910642
2.7169166
2.3096713
2.0337244
1.8322693
1.6827503
1.5724251
1.4900548
1.427738
1.3801427
1.3434113
1.3147238
1.2920651
1.2739973
1.2594793
1.2477427
1.2382097
1.2304379
1.2240845
1.2188801
22.319027
22.030081
20.723645
17.810893
14.065671
10.602403
7.9499023
6.0876075
4.8265869
3.9679452
3.2902016
2.7157887
2.3085967
2.0327101
1.8313391
1.6819464
1.5717371
1.4894606
1.4272172
1.3796782
1.3429892
1.3143332
1.2916982
1.2736485
1.2591444
1.2474184
1.2378936
1.2301282
1.2237798
1.2185791
22.320651
22.03347
20.734275
17.831066
14.086572
10.617964
7.9586847
6.091744
4.827887
3.9677959
3.2893419
2.7146633
2.3075242
2.031698
1.8304111
1.6811448
1.5710512
1.4888682
1.426698
1.379215
1.3425681
1.3139435
1.2913322
1.2733004
1.2588102
1.2470949
1.2375783
1.2298193
1.2234757
1.2182786
22.322268
22.036835
20.74486
17.851239
14.107519
10.633583
7.9675081
6.0959012
4.8291953
3.9676509
3.2884852
2.7135406
2.3064541
2.0306879
1.8294868
1.6803452
1.5703673
1.4882774
1.4261803
1.3787533
1.3421483
1.313555
1.2909673
1.2729535
1.258477
1.2467724
1.237264
1.2295113
1.2231725
1.2179791
22.323877
22.040175
20.755403
17.871409
14.128514
10.64926
7.9763702
6.1000793
4.830512
3.9675101
3.2876315
2.7124206
2.3053863
2.02968
1.8285641
1.6795475
1.5696852
1.487688
1.4256637
1.3782927
1.3417295
1.3131674
1.2906032
1.2726073
1.2581445
1.2464506
1.2369503
1.229204
1.2228699
1.2176802
22.32548
22.043489
20.765902
17.891576
14.149557
10.664994
7.9852735
6.1042799
4.8318373
3.9673738
3.286781
2.7113034
2.3043205
2.0286743
1.827643
1.6787521
1.5690048
1.4871003
1.4251486
1.3778335
1.3413119
1.3127809
1.2902402
1.2722622
1.257813
1.2461297
1.2366377
1.2288976
1.2225683
1.2173822
22.327076
22.046778
20.776355
17.91174
14.170644
10.680787
7.9942163
6.1085028
4.8331728
3.9672417
3.2859335
2.7101889
2.3032567
2.0276706
1.8267239
1.6779588
1.5683261
1.4865142
1.4246349
1.3773753
1.3408952
1.3123954
1.289878
1.2719178
1.2574823
1.2458094
1.2363256
1.2285918
1.2222673
1.217085
22.328665
22.050042
20.786761
17.931899
14.191782
10.696638
8.0032006
6.1127469
4.8345183
3.9671138
3.2850891
2.7090769
2.3021952
2.0266686
1.8258084
1.6771674
1.5676493
1.4859299
1.4241227
1.3769183
1.3404798
1.3120109
1.2895168
1.2715743
1.2571525
1.2454901
1.2360144
1.2282869
1.2219673
1.2167885
22.330247
22.053281
20.79712
17.952055
14.212963
10.712548
8.0122251
6.1170135
4.8358732
3.9669903
3.2842478
2.7079676
2.3011358
2.0256689
1.8248942
1.6763777
1.5669742
1.4853467
1.4236117
1.3764624
1.3400652
1.3116272
1.2891563
1.2712315
1.2568234
1.2451714
1.2357038
1.2279825
1.2216678
1.2164926
22.331822
22.056494
20.807435
17.972202
14.234191
10.728516
8.0212913
6.1213033
4.8372375
3.9668713
3.28341
2.7068613
2.3000786
2.0246712
1.8239815
1.6755901
1.5663008
1.484765
1.423102
1.3760079
1.3396519
1.3112446
1.288797
1.2708898
1.2564952
1.2448537
1.2353941
1.227679
1.2213692
1.2161975
22.333391
22.059683
20.817708
17.992346
14.255466
10.744543
8.0303983
6.1256147
4.8386111
3.9667568
3.2825755
2.705758
2.2990234
2.0236755
1.8230708
1.6748045
1.565629
1.4841848
1.4225936
1.3755545
1.3392396
1.3108629
1.2884384
1.2705488
1.2561677
1.2445367
1.2350851
1.2273763
1.2210711
1.215903
22.334953
22.062846
20.827933
18.01248
14.276784
10.760629
8.0395472
6.1299487
4.8399939
3.9666471
3.2817447
2.7046577
2.2979706
2.0226816
1.8221638
1.674021
1.564959
1.4836065
1.4220865
1.3751024
1.3388283
1.3104822
1.2880808
1.2702088
1.2558411
1.2442206
1.234777
1.2270744
1.2207738
1.2156094
22.336508
22.065983
20.83811
18.032609
14.29815
10.776775
8.0487375
6.1343066
4.8413862
3.966542
3.2809174
2.7035602
2.2969201
2.0216898
1.8212579
1.673239
1.5642907
1.4830294
1.4215808
1.3746511
1.3384179
1.3101024
1.287724
1.2698695
1.2555151
1.243905
1.2344695
1.2267731
1.2204771
1.2153163
22.338057
22.069096
20.848239
18.052729
14.319559
10.792978
8.0579701
6.1386869
4.8427889
3.9664415
3.2800936
2.7024657
2.2958716
2.0206999
1.8203532
1.6724589
1.5636241
1.4824537
1.4210764
1.374201
1.3380086
1.3097236
1.2873681
1.2695311
1.2551901
1.2435903
1.2341629
1.2264726
1.2201813
1.215024
22.3396
22.072184
20.858322
18.072838
14.341012
10.809242
8.0672447
6.14309
4.8442012
3.9663456
3.2792734
2.7013741
2.294825
2.0197119
1.8194505
1.6716807
1.5629587
1.4818791
1.420573
1.373752
1.3376003
1.3093456
1.2870129
1.2691933
1.2548658
1.2432762
1.2338568
1.2261726
1.2198862
1.2147325
22.341136
22.075246
20.868362
18.092941
14.362512
10.825565
8.0765619
6.1475175
4.8456232
3.9662546
3.2784569
2.7002857
2.2937806
2.0187255
1.8185513
1.6709043
1.562295
1.4813061
1.4200709
1.3733042
1.337193
1.3089685
1.2866586
1.2688564
1.2545424
1.2429629
1.2335515
1.2258734
1.2195918
1.2144417
22.342665
22.078284
20.878355
18.113028
14.384053
10.841948
8.0859215
6.1519682
4.8470549
3.9661685
3.2776443
2.6992003
2.2927385
2.017741
1.817653
1.6701294
1.5616329
1.4807346
1.4195698
1.3728574
1.3367866
1.3085922
1.2863052
1.2685202
1.2542195
1.2426503
1.2332467
1.2255748
1.219298
1.2141513
22.344188
22.081297
20.8883
18.133109
14.40564
10.858391
8.0953241
6.1564419
4.8484964
3.9660873
3.2768356
2.698118
2.2916986
2.0167585
1.8167559
1.6693564
1.5609725
1.4801645
1.4190701
1.3724116
1.3363811
1.3082169
1.2859526
1.2681849
1.2538974
1.2423386
1.2329428
1.225277
1.2190048
1.2138617
22.345705
22.084285
20.898195
18.153175
14.427268
10.874893
8.1047694
6.1609401
4.849948
3.9660113
3.276031
2.697039
2.2906607
2.0157778
1.8158606
1.668585
1.5603133
1.4795954
1.4185717
1.3719667
1.3359765
1.3078424
1.2856007
1.2678503
1.2535759
1.2420275
1.2326396
1.2249799
1.2187122
1.2135726
22.347215
22.087248
20.908043
18.173228
14.44894
10.891455
8.1142583
6.1654626
4.8514104
3.9659402
3.2752303
2.6959631
2.2896246
2.0147985
1.8149687
1.6678154
1.5596555
1.4790276
1.4180743
1.3715229
1.3355729
1.3074688
1.2852497
1.2675165
1.2532553
1.2417171
1.2323371
1.2246835
1.2184203
1.2132842
22.348719
22.090186
20.917844
18.193269
14.470656
10.908078
8.1237902
6.1700084
4.8528831
3.9658741
3.2744337
2.6948903
2.2885908
2.013821
1.8140776
1.6670471
1.5589991
1.4784609
1.4175777
1.37108
1.3351701
1.3070959
1.2848993
1.2671833
1.2529352
1.2414072
1.2320352
1.2243876
1.218129
1.2129963
22.350217
22.093099
20.9276
18.213292
14.492411
10.92476
8.1333661
6.174579
4.8543657
3.9658132
3.2736413
2.6938207
2.2875591
2.0128452
1.8131874
1.6662805
1.5583443
1.4778959
1.4170823
1.3706383
1.3347682
1.3067238
1.2845497
1.2668508
1.252616
1.241098
1.2317339
1.2240923
1.2178384
1.2127093
22.351709
22.095987
20.93731
18.233305
14.51421
10.941503
8.1429853
6.1791746
4.8558583
3.9657577
3.2728531
2.6927543
2.2865294
2.0118712
1.8122987
1.6655153
1.5576909
1.477332
1.416588
1.3701975
1.3343672
1.3063525
1.2842008
1.266519
1.2522975
1.2407894
1.2314332
1.2237976
1.2175484
1.2124229
22.353194
22.098851
20.946969
18.253297
14.53605
10.958307
8.152649
6.1837938
4.857361
3.9657074
3.2720693
2.6916913
2.2855015
2.0108985
1.8114135
1.664752
1.5570385
1.476769
1.4160951
1.3697575
1.333967
1.3059821
1.2838528
1.266188
1.2519796
1.2404816
1.2311331
1.2235035
1.2172591
1.212137
22.354674
22.10169
20.956579
18.273276
14.557931
10.975171
8.1623561
6.1884382
4.8588743
3.9656626
3.2712899
2.6906315
2.2844756
2.0099273
1.810529
1.6639897
1.5563873
1.476207
1.4156029
1.3693182
1.3335675
1.3056122
1.2835053
1.2658575
1.2516622
1.2401744
1.2308335
1.22321
1.2169702
1.2118515
22.356148
22.104505
20.96614
18.293235
14.579854
10.992096
8.1721083
6.1931082
4.8603983
3.9656231
3.2705148
2.6895749
2.2834518
2.0089578
1.8096452
1.663229
1.5557377
1.4756463
1.4151117
1.36888
1.3331689
1.3052432
1.2831586
1.2655279
1.2513454
1.2398678
1.2305347
1.2229171
1.2166819
1.2115667
22.357616
22.107295
20.975655
18.313175
14.601815
11.009082
8.1819041
6.1978022
4.8619331
3.965589
3.2697443
2.6885216
2.2824299
2.0079898
1.8087626
1.6624695
1.5550894
1.4750869
1.4146212
1.3684426
1.332771
1.3048749
1.2828125
1.2651988
1.2510292
1.2395618
1.2302364
1.2226249
1.2163941
1.2112823
22.359078
22.11006
20.985125
18.333099
14.623818
11.026128
8.1917454
6.2025219
4.8634786
3.9655606
3.2689785
2.6874716
2.2814098
2.007023
1.8078834
1.6617117
1.5544421
1.4745286
1.4141319
1.3680062
1.332374
1.3045073
1.2824671
1.2648704
1.2507138
1.2392564
1.2299388
1.2223333
1.2161069
1.2109985
22.360535
22.112801
20.994547
18.352998
14.64586
11.043236
8.2016305
6.2072674
4.8650348
3.9655378
3.2682173
2.6864248
2.2803913
2.0060576
1.8070048
1.660955
1.5537957
1.4739709
1.4136435
1.3675705
1.3319777
1.3041403
1.2821222
1.2645424
1.2503989
1.2389513
1.2296417
1.222042
1.2158201
1.2107152
22.361986
22.115517
21.003918
18.372881
14.66794
11.060404
8.2115615
6.2120375
4.8666014
3.9655207
3.2674609
2.6853815
2.2793748
2.0050936
1.8061269
1.6601995
1.5531506
1.4734143
1.4131562
1.3671356
1.3315821
1.3037741
1.2817781
1.264215
1.2500846
1.238647
1.2293451
1.2217514
1.2155341
1.2104326
22.363432
22.11821
21.01324
18.392739
14.690062
11.077634
8.2215367
6.2168337
4.8681789
3.9655094
3.2667093
2.6843414
2.2783602
2.0041311
1.8052498
1.6594453
1.552507
1.4728587
1.4126696
1.3667014
1.3311871
1.3034084
1.2814346
1.2638883
1.2497709
1.2383431
1.2290489
1.2214611
1.2152485
1.2101505
22.364872
22.120878
21.022513
18.412576
14.71222
11.094926
8.2315581
6.2216561
4.8697673
3.9655039
3.2659624
2.6833045
2.2773473
2.0031696
1.8043759
1.6586925
1.5518644
1.4723044
1.4121837
1.366268
1.3307929
1.3030434
1.2810918
1.2635622
1.2494577
1.2380399
1.2287532
1.2211714
1.2149635
1.2098689
22.366306
22.123523
21.03174
18.43239
14.734418
11.112278
8.241624
6.2265036
4.8713666
3.9655042
3.2652206
2.682271
2.2763359
2.0022092
1.8035026
1.6579408
1.5512224
1.4717509
1.4116986
1.3658353
1.3303993
1.3026791
1.2807494
1.2632366
1.2491448
1.2377371
1.228458
1.2208821
1.2146788
1.2095876
22.367736
22.126144
21.040921
18.452177
14.756653
11.129692
8.2517364
6.2313776
4.872977
3.9655105
3.2644837
2.6812406
2.2753261
2.0012502
1.8026299
1.6571901
1.5505814
1.4711982
1.4112145
1.3654036
1.3300064
1.3023154
1.2804077
1.2629117
1.2488326
1.237435
1.2281635
1.2205935
1.2143946
1.2093067
22.36916
22.128742
21.050055
18.471944
14.778925
11.147169
8.2618936
6.2362782
4.8745986
3.9655228
3.2637519
2.6802135
2.2743181
2.0002924
1.8017578
1.6564406
1.5499418
1.4706462
1.4107313
1.3649725
1.3296142
1.3019522
1.2800664
1.2625872
1.2485209
1.2371333
1.2278695
1.2203054
1.2141108
1.2090263
22.37058
22.131317
21.059139
18.491681
14.801236
11.164705
8.2720975
6.2412042
4.8762317
3.9655411
3.2630253
2.6791898
2.2733118
1.9993356
1.8008885
1.6556922
1.5493034
1.4700952
1.410249
1.364542
1.3292227
1.3015897
1.2797257
1.2622633
1.2482099
1.236832
1.227576
1.2200178
1.2138275
1.2087464
22.371994
22.133869
21.068174
18.511395
14.823582
11.182305
8.2823469
6.2461573
4.877876
3.9655656
3.2623037
2.6781693
2.2723067
1.9983797
1.8000201
1.6549451
1.5486656
1.4695453
1.409767
1.364112
1.3288316
1.3012276
1.2793854
1.2619396
1.2478992
1.236531
1.2272828
1.2197304
1.2135445
1.2084669
22.373403
22.136399
21.07716
18.53108
14.845966
11.199966
8.2926429
6.2511372
4.8795314
3.9655962
3.2615874
2.6771519
2.271303
1.9974249
1.799152
1.6541987
1.5480285
1.4689963
1.4092858
1.3636828
1.3284411
1.3008661
1.2790459
1.2616166
1.2475891
1.2362306
1.22699
1.2194435
1.2132622
1.208188
22.374808
22.138907
21.086099
18.550735
14.868386
11.217689
8.302985
6.2561431
4.881198
3.965633
3.2608763
2.6761376
2.2703007
1.9964713
1.7982844
1.6534536
1.5473924
1.4684478
1.4088054
1.3632543
1.3280513
1.3005051
1.2787068
1.261294
1.2472793
1.2359307
1.2266976
1.2191569
1.2129804
1.2079095
22.376207
22.141392
21.094994
18.570368
14.890842
11.235474
8.3133739
6.2611766
4.8828761
3.9656761
3.2601704
2.6751265
2.2693
1.9955185
1.7974193
1.6527092
1.5467576
1.4679001
1.408326
1.3628267
1.3276621
1.3001449
1.2783683
1.2609722
1.24697
1.2356314
1.2264057
1.2188709
1.212699
1.2076315
22.377603
22.143856
21.103843
18.589965
14.913334
11.253322
8.3238095
6.266237
4.884566
3.9657254
3.2594699
2.6741185
2.2683006
1.9945665
1.7965553
1.6519662
1.5461237
1.467353
1.4078472
1.3623994
1.3272734
1.299785
1.2780301
1.2606505
1.246661
1.2353323
1.2261141
1.2185851
1.2124178
1.2073535
22.378993
22.146298
21.112644
18.609537
14.935861
11.27123
8.3342919
6.2713241
4.8862677
3.9657811
3.2587746
2.6731136
2.2673022
1.9936155
1.7956916
1.651224
1.5454904
1.4668073
1.4073691
1.3619727
1.3268853
1.2994256
1.2776924
1.2603295
1.2463525
1.2350338
1.2258231
1.2183
1.2121369
1.207076
22.380379
22.14872
21.121395
18.629076
14.958424
11.289203
8.3448219
6.2764393
4.8879815
3.9658431
3.2580846
2.6721118
2.266305
1.9926655
1.7948282
1.6504827
1.5448577
1.4662622
1.4068913
1.3615465
1.3264977
1.2990667
1.277355
1.2600088
1.2460444
1.2347355
1.2255325
1.2180152
1.2118564
1.2067988
22.381761
22.151121
21.130098
18.648582
14.981021
11.307237
8.3553986
6.2815815
4.8897072
3.9659116
3.2573998
2.6711128
2.2653092
1.9917163
1.7939668
1.6497423
1.5442261
1.4657177
1.4064143
1.3611211
1.3261106
1.2987083
1.2770183
1.2596885
1.245737
1.2344377
1.2252424
1.2177309
1.2115763
1.2065221
22.383139
22.153501
21.138755
18.668061
15.003653
11.325333
8.3660236
6.286751
4.8914448
3.9659865
3.2567203
2.6701168
2.2643145
1.9907678
1.7931069
1.6490029
1.5435956
1.4651736
1.405938
1.3606961
1.3257239
1.2983502
1.276682
1.2593684
1.2454298
1.23414
1.2249524
1.2174467
1.2112965
1.2062457
22.384512
22.15586
21.147368
18.687502
15.026321
11.343493
8.3766956
6.2919491
4.8931945
3.9660679
3.2560457
2.6691237
2.2633209
1.9898204
1.7922472
1.6482647
1.5429659
1.4646302
1.4054625
1.3602719
1.3253378
1.2979928
1.2763461
1.2590489
1.245123
1.2338429
1.2246628
1.2171629
1.2110172
1.2059698
22.385881
22.1582
21.155937
18.706914
15.049021
11.361715
8.3874163
6.2971744
4.8949568
3.9661559
3.2553761
2.6681334
2.2623284
1.9888739
1.7913879
1.647527
1.5423366
1.4640881
1.4049877
1.3598481
1.3249521
1.2976357
1.2760106
1.2587298
1.2448165
1.2335461
1.2243735
1.2168793
1.2107383
1.2056942
22.387247
22.160521
21.16446
18.72629
15.071757
11.379999
8.3981848
6.3024279
4.8967317
3.9662505
3.2547114
2.6671459
2.2613371
1.9879282
1.7905302
1.6467904
1.5417079
1.4635467
1.4045133
1.3594248
1.3245672
1.2972792
1.2756756
1.2584113
1.2445104
1.2332499
1.2240846
1.2165962
1.2104598
1.205419
22.388608
22.162822
21.172936
18.74563
15.094527
11.398346
8.4090022
6.3077101
4.8985197
3.9663518
3.2540513
2.6661612
2.2603472
1.9869832
1.789674
1.6460543
1.5410803
1.4630056
1.4040392
1.3590019
1.3241825
1.2969229
1.2753407
1.2580929
1.2442044
1.2329539
1.2237959
1.2163133
1.2101814
1.2051438
22.389965
22.165104
21.181365
18.76494
15.117331
11.416757
8.4198682
6.3130199
4.9003208
3.9664599
3.2533959
2.6651791
2.2593585
1.9860393
1.7888184
1.6453198
1.5404539
1.462465
1.4035657
1.3585796
1.3237982
1.2965672
1.2750063
1.257775
1.2438989
1.2326583
1.2235077
1.2160309
1.2099032
1.204869
22.391319
22.167368
21.189747
18.784209
15.140169
11.43523
8.4307835
6.3183586
4.9021348
3.9665747
3.252745
2.6641996
2.2583708
1.9850963
1.787963
1.6445856
1.5398279
1.4619249
1.4030931
1.3581577
1.3234143
1.2962116
1.2746722
1.2574573
1.2435939
1.2323628
1.2232199
1.2157489
1.2096253
1.2045943
22.392669
22.169613
21.198085
18.803445
15.163041
11.453766
8.4417484
6.3237261
4.9039618
3.9666965
3.2520987
2.6632228
2.2573843
1.9841542
1.7871089
1.6438526
1.5392024
1.461386
1.4026213
1.3577366
1.323031
1.2958566
1.2743387
1.2571399
1.2432893
1.2320677
1.2229325
1.2154672
1.2093477
1.2043201
22.394016
22.171841
21.20638
18.822644
15.185947
11.472366
8.4527629
6.3291217
4.9058021
3.9668251
3.2514568
2.6622485
2.2563991
1.9832126
1.7862562
1.6431199
1.5385773
1.4608479
1.4021497
1.3573158
1.3226479
1.2955019
1.2740054
1.2568227
1.2429849
1.2317726
1.2226451
1.2151855
1.2090703
1.204046
22.395359
22.174051
21.214635
18.841801
15.208887
11.491028
8.4638279
6.3345471
4.9076558
3.9669607
3.2508194
2.6612767
2.2554152
1.982272
1.7854044
1.6423885
1.5379534
1.46031
1.4016785
1.3568953
1.3222654
1.2951477
1.2736725
1.2565061
1.2426807
1.231478
1.2223579
1.2149041
1.2087935
1.2037726
22.396699
22.176244
21.222844
18.860927
15.231862
11.509754
8.4749431
6.340001
4.9095233
3.9671034
3.2501863
2.6603074
2.2544324
1.9813324
1.7845526
1.6416577
1.5373305
1.4597724
1.4012075
1.3564751
1.3218832
1.2947936
1.2733399
1.2561897
1.2423767
1.2311838
1.2220709
1.2146228
1.2085169
1.2034993
22.398035
22.17842
21.231006
18.880009
15.25487
11.528544
8.4861096
6.345484
4.9114046
3.9672531
3.2495576
2.6593406
2.2534506
1.9803937
1.7837019
1.6409277
1.536708
1.4592352
1.4007372
1.3560555
1.3215013
1.2944401
1.2730075
1.2558738
1.242073
1.2308899
1.2217842
1.2143418
1.2082406
1.2032262
22.399369
22.18058
21.239124
18.899052
15.277914
11.547395
8.4973272
6.3509972
4.9132997
3.96741
3.2489331
2.6583761
2.25247
1.9794554
1.7828525
1.6401984
1.5360856
1.4586989
1.4002676
1.3556362
1.3211197
1.2940866
1.2726752
1.2555579
1.2417693
1.2305963
1.2214977
1.214061
1.2079643
1.2029531
22.4007
22.182724
21.247197
18.918059
15.300993
11.566311
8.5085969
6.356539
4.9152083
3.967574
3.2483128
2.657414
2.2514907
1.9785179
1.782004
1.6394695
1.5354637
1.4581637
1.3997987
1.3552175
1.3207385
1.2937335
1.2723433
1.2552423
1.2414662
1.2303028
1.2212117
1.2137808
1.2076882
1.2026803
22.402028
22.184852
21.255227
18.937019
15.324107
11.585291
8.5199188
6.3621111
4.9171308
3.9677452
3.2476967
2.6564542
2.2505125
1.9775814
1.7811557
1.6387419
1.534843
1.4576285
1.3993298
1.3547992
1.3203575
1.2933806
1.2720118
1.2549267
1.2411633
1.2300093
1.220926
1.2135007
1.2074121
1.2024075
22.403353
22.186965
21.263215
18.955943
15.347259
11.604333
8.5312935
6.3677132
4.9190674
3.9679237
3.2470848
2.6554967
2.2495353
1.9766457
1.7803081
1.6380145
1.5342232
1.4570935
1.3988612
1.354381
1.3199768
1.2930281
1.2716805
1.2546114
1.2408607
1.2297161
1.2206404
1.2132208
1.2071363
1.2021349
22.404675
22.189063
21.271162
18.97482
15.370447
11.623439
8.5427217
6.3733448
4.9210182
3.9681096
3.246477
2.6545414
2.2485589
1.9757104
1.7794616
1.6372881
1.5336034
1.4565587
1.3983927
1.3539629
1.3195966
1.2926758
1.2713494
1.2542963
1.2405582
1.2294228
1.2203547
1.2129409
1.2068605
1.2018624
22.405996
22.191149
21.279062
18.993653
15.393673
11.642609
8.5542037
6.3790075
4.9229834
3.9683028