/*--------------------------------*- C++ -*----------------------------------*\
| =========                 |                                                 |
| \\      /  F ield         | OpenFOAM: The Open Source CFD Toolbox           |
|  \\    /   O peration     | Version:  v2012                                 |
|   \\  /    A nd           | Website:  www.openfoam.com                      |
|    \\/     M anipulation  |                                                 |
\*---------------------------------------------------------------------------*/
FoamFile
{
    version     2.0;
    format      ascii;
    class       volScalarField;
    location    "700";
    object      T;
}
// * * * * * * * * * * * * * * * * * * * * * * * * * * * * * * * * * * * * * //

dimensions      [0 0 0 1 0 0 0];


internalField   nonuniform List<scalar> 
24000
(
42.737308
42.965218
44.082335
47.325437
53.998804
65.428705
81.77072
102.45665
125.73081
150.66598
180.53676
217.82339
255.40178
289.21
320.62484
349.45402
374.63753
396.088
414.09379
429.011
441.26648
451.31597
459.56515
466.34862
471.93589
476.54358
480.34654
483.48664
486.0796
488.22012
42.736288
42.962699
44.072948
47.299711
53.950183
65.362894
81.691218
102.38341
125.68477
150.65653
180.56301
217.88322
255.48829
289.33137
320.77946
349.62769
374.82042
396.27283
414.2754
429.18689
441.43623
451.4801
459.72454
466.50415
472.08837
476.69372
480.49492
483.63375
486.22584
488.36582
42.735252
42.960134
44.063352
47.273996
53.902693
65.296434
81.617391
102.32109
125.65376
150.66226
180.60378
217.96289
255.60124
289.48083
320.96047
349.82448
375.02202
396.4731
414.47026
429.37418
441.61589
451.65308
459.89205
466.66736
472.24828
476.85115
480.65052
483.78805
486.37924
488.51866
42.734218
42.957549
44.053795
47.248462
53.855612
65.230379
81.545919
102.26212
125.62537
150.67002
180.64755
218.04435
255.71187
289.62247
321.12659
349.99781
375.19279
396.63731
414.62649
429.52269
441.75797
451.7901
460.02513
466.79737
472.37592
476.97695
480.77494
483.91146
486.50194
488.64091
42.733186
42.954968
44.044276
47.223086
53.80864
65.164839
81.47586
102.20533
125.59952
150.68075
180.69555
218.13136
255.82839
289.76987
321.29871
350.17829
375.37243
396.81217
414.79472
429.68388
441.9129
451.93985
460.17073
466.93969
472.51568
477.11475
480.91126
484.04669
486.63642
488.77491
42.732159
42.952394
44.034807
47.197813
53.76175
65.099561
81.406573
102.14976
125.57508
150.6932
180.74623
218.22203
255.94869
289.92076
321.47404
350.36169
375.55466
396.98929
414.96494
429.84693
442.06964
452.09145
460.31824
467.084
472.65749
477.25464
481.0497
484.18407
486.77305
488.91105
42.731136
42.949833
44.025386
47.17266
53.71493
65.034444
81.337719
102.09492
125.55158
150.70685
180.79887
218.31548
256.07199
290.07458
321.65222
350.54788
375.73959
397.16902
415.13771
430.01246
442.22884
452.24549
460.46818
467.23073
472.80172
477.39695
481.19056
484.32387
486.9121
489.0496
42.730118
42.947293
44.016029
47.147589
53.668207
64.969384
81.269096
102.04052
125.52864
150.72129
180.85288
218.41089
256.1974
290.23041
321.8323
350.73587
375.92621
397.35034
415.31198
430.17946
442.38949
452.40097
460.61959
467.37893
472.94743
477.54075
481.33292
484.46516
487.05264
489.18965
42.729105
42.944769
44.006726
47.122617
53.621542
64.90435
81.200588
101.98635
125.50606
150.73627
180.90782
218.50766
256.32429
290.38763
322.01365
350.92503
376.11391
397.53266
415.48721
430.34739
442.55106
452.55738
460.77191
467.52806
473.09409
477.6855
481.47623
484.60741
487.19414
489.33065
42.728098
42.942262
43.997481
47.097721
53.574969
64.839293
81.132104
101.9323
125.48368
150.75161
180.96342
218.60536
256.4522
290.54578
322.19584
351.11493
376.30228
397.71561
415.66303
430.5159
442.71322
452.71438
460.92484
467.67781
473.24137
477.83089
481.62018
484.75031
487.33628
489.4723
42.727098
42.939773
43.988281
47.07291
53.528466
64.774187
81.063605
101.87826
125.46141
150.76718
181.01947
218.70374
256.58078
290.70453
322.37854
351.30527
376.49102
397.89888
415.83916
430.6847
442.87567
452.87169
461.07809
467.82788
473.38898
477.97661
481.76447
484.89354
487.47876
489.61428
42.726102
42.937301
43.979132
47.048174
53.482038
64.709025
80.99504
101.82419
125.43916
150.78289
181.07584
218.80257
256.70982
290.86368
322.56151
351.49582
376.67993
398.08229
416.01541
430.85364
443.03826
453.02915
461.2315
467.97813
473.53677
478.12251
481.90895
485.03696
487.62144
489.75646
42.725112
42.934847
43.970042
47.023511
53.435704
64.643774
80.926396
101.77005
125.4169
150.79868
181.13241
218.9017
256.83916
291.02305
322.74463
351.68642
376.86886
398.26568
416.19163
431.02255
443.20084
453.18661
461.38492
468.1284
473.68459
478.26845
482.05347
485.18043
487.76416
489.89868
42.724127
42.93241
43.961004
46.998931
53.389433
64.578444
80.857645
101.7158
125.39457
150.81449
181.18912
219.00103
256.96868
291.18254
322.92777
351.87698
377.0577
398.44899
416.36777
431.19139
443.36336
453.34403
461.53831
468.27864
473.83239
478.41437
482.19797
485.32389
487.90687
490.04089
42.723147
42.92999
43.952014
46.974413
53.343265
64.513009
80.788778
101.66142
125.37216
150.83029
181.24592
219.10047
257.09827
291.34205
323.11082
352.06741
377.24638
398.6321
416.5437
431.36004
443.52571
453.50128
461.69154
468.42873
473.98005
478.56017
482.34235
485.46722
488.04946
490.18299
42.722172
42.927588
43.943067
46.949978
53.29717
64.447475
80.719787
101.60689
125.34964
150.84606
181.30276
219.19998
257.22787
291.50151
323.29375
352.25764
377.43483
398.81498
416.71941
431.52847
443.68786
453.65835
461.84461
468.57867
474.12756
478.70582
482.48659
485.61042
488.19192
490.32494
42.721202
42.925204
43.934174
46.925603
53.251164
64.381837
80.650661
101.55221
125.327
150.86176
181.35962
219.2995
257.35745
291.66089
323.47651
352.44763
377.62301
398.99757
416.89484
431.69664
443.84975
453.81517
461.99744
468.72839
474.27486
478.85126
482.63062
485.75341
488.33417
490.4667
42.720237
42.922836
43.925332
46.901305
53.205256
64.316081
80.581404
101.49736
125.30422
150.87739
181.41646
219.39901
257.48697
291.82016
323.65906
352.63736
377.8109
399.17987
417.06999
431.86454
444.0114
453.97178
462.15006
468.8779
474.42197
478.99651
482.77448
485.89623
488.47625
490.60828
42.719276
42.920487
43.916544
46.877072
53.159421
64.250218
80.512
101.44232
125.28128
150.89294
181.47328
219.49846
257.61641
291.97929
323.84138
352.8268
377.99848
399.36185
417.24481
432.03213
444.17275
454.12809
462.30241
469.02715
474.56881
479.14151
482.91807
486.03879
488.61808
490.74962
42.718321
42.918158
43.907799
46.852909
53.113703
64.18423
80.442463
101.38709
125.25818
150.9084
181.53004
219.59786
257.74573
292.13826
324.02345
353.01593
378.18573
399.54349
417.4193
432.19941
444.33381
454.28413
462.45449
469.17614
474.7154
479.28626
483.06143
486.18112
488.75967
490.89072
42.717371
42.915846
43.899095
46.828815
53.068065
64.118135
80.372775
101.33168
125.23491
150.92374
181.58675
219.69717
257.87491
292.29704
324.20526
353.20474
378.37262
399.72476
417.59343
432.36633
444.49453
454.43984
462.60626
469.32482
474.8617
479.43072
483.2045
486.32316
488.90098
491.03154
42.716425
42.913552
43.890449
46.804786
53.022531
64.051921
80.302951
101.27607
125.21148
150.93898
181.64338
219.79637
258.00395
292.45563
324.38679
353.39322
378.55918
399.90569
417.76722
432.53294
444.65495
454.59527
462.75775
469.47325
475.00774
479.57493
483.34733
486.46496
489.04205
491.17212
42.715484
42.911278
43.881853
46.780832
52.977071
63.985639
80.232979
101.22025
125.18787
150.9541
181.69993
219.89545
258.13283
292.61401
324.56801
353.58134
378.74535
400.08623
417.94064
432.69919
444.81503
454.75036
462.90892
469.62136
475.15347
479.71883
483.48985
486.60646
489.18282
491.3124
42.714548
42.909024
43.873306
46.75694
52.931645
63.91933
80.162866
101.16423
125.16409
150.96909
181.75638
219.9944
258.26153
292.77218
324.74895
353.76912
378.93115
400.2664
418.11369
432.86509
444.97477
454.90515
463.0598
469.76918
475.29892
479.86246
483.6321
486.74769
489.32332
491.45242
42.713617
42.906786
43.864801
46.733122
52.886299
63.852984
80.092608
101.10801
125.14012
150.98396
181.81273
220.09321
258.39005
292.93013
324.92958
353.95653
379.11657
400.44618
418.28635
433.03062
445.13417
455.0596
463.21035
469.91668
475.44406
480.00579
483.77405
486.88862
489.46353
491.59214
42.712691
42.904566
43.856337
46.709369
52.840985
63.786617
80.022204
101.05157
125.11598
150.99869
181.86897
220.19187
258.51839
293.08785
325.10991
354.14359
379.30162
400.62559
418.45866
433.19582
445.29325
455.21374
463.36061
470.0639
475.58893
480.14885
483.91574
487.0293
489.60348
491.73161
42.711769
42.902363
43.847934
46.685685
52.795735
63.720222
79.951656
100.99492
125.09165
151.01329
181.92509
220.29038
258.64655
293.24533
325.28991
354.33028
379.48627
400.80459
418.63057
433.36062
445.45195
455.36752
463.51051
470.21078
475.73346
480.29157
484.0571
487.16965
489.74311
491.87075
42.710852
42.900177
43.83958
46.662071
52.750541
63.653797
79.880956
100.93805
125.06712
151.02774
181.98109
220.38873
258.7745
293.4026
325.46962
354.51661
379.67055
400.98322
418.8021
433.52507
445.61032
455.52099
463.66011
470.35736
475.8777
480.43401
484.19817
487.30971
489.88246
492.00962
42.709939
42.898009
43.831273
46.638523
52.705386
63.587349
79.810114
100.88097
125.0424
151.04205
182.03698
220.48692
258.90228
293.55965
325.64904
354.7026
379.85445
401.16146
418.97326
433.68916
445.76833
455.67411
463.80938
470.50362
476.02162
480.57614
484.33894
487.44947
490.0215
492.14818
42.709031
42.895858
43.823008
46.61505
52.660314
63.52087
79.739115
100.82366
125.01748
151.05622
182.09273
220.58495
259.02988
293.71649
325.82817
354.88826
380.03802
401.33937
419.14409
433.85293
445.92605
455.82695
463.95837
470.64961
476.16528
480.718
484.47945
487.58898
490.16029
492.28649
42.708128
42.893724
43.814785
46.591639
52.615278
63.454377
79.667975
100.76613
124.99237
151.07024
182.14834
220.68281
259.15729
293.8731
326.007
355.07356
380.2212
401.51688
419.31453
434.01632
446.0834
455.97943
464.10702
470.79526
476.30861
480.85955
484.61964
487.72817
490.29877
492.42449
42.707229
42.891608
43.806621
46.568309
52.570314
63.387859
79.596678
100.70838
124.96705
151.08412
182.20381
220.78049
259.2845
294.02949
326.18554
355.25852
380.40402
401.69402
419.48461
434.17937
446.24043
456.13161
464.25538
470.94063
476.45166
481.00081
484.75956
487.86709
490.43697
492.56222
42.706334
42.889509
43.798509
46.545046
52.525406
63.321317
79.525239
100.65041
124.94154
151.09783
182.25913
220.87797
259.4115
294.18565
326.36377
355.44312
380.58646
401.87078
419.65431
434.34206
446.39711
456.28345
464.4034
471.08567
476.59439
481.14177
484.89916
488.0057
490.57488
492.69965
42.705444
42.887427
43.790441
46.521856
52.480547
63.254757
79.453642
100.5922
124.91582
151.11139
182.31429
220.97526
259.53831
294.34159
326.5417
355.62739
380.76856
402.0472
419.82368
434.50443
446.55349
456.435
464.55115
471.23045
476.73686
481.28247
485.03852
488.14406
490.71253
492.83683
42.704559
42.885363
43.782416
46.498739
52.435773
63.188175
79.381902
100.53377
124.88991
151.12478
182.36928
221.07236
259.66493
294.4973
326.71934
355.81131
380.95027
402.22322
419.99265
434.66642
446.7095
456.58619
464.69855
471.37489
476.879
481.42283
485.17755
488.2821
490.84986
492.97369
42.703679
42.883318
43.774433
46.47569
52.39104
63.121581
79.310005
100.47511
124.86379
151.138
182.42411
221.16927
259.79133
294.6528
326.8967
355.99488
381.13163
402.39888
420.16128
434.82808
446.86519
456.73708
464.84565
471.51904
477.02085
481.56293
485.31631
488.41987
490.98693
493.11028
42.702804
42.881292
43.766507
46.45272
52.346385
63.054969
79.237962
100.41621
124.83746
151.15107
182.47878
221.26598
259.91755
294.80809
327.07377
356.17814
381.31265
402.57418
420.32955
434.98938
447.02054
456.88764
464.99244
471.66287
477.1624
481.70271
485.45476
488.55734
491.12369
493.24657
42.701933
42.879283
43.758634
46.429814
52.301792
62.988339
79.165764
100.35708
124.81092
151.16397
182.53327
221.36249
260.04359
294.96318
327.25059
356.36111
381.49336
402.74919
420.49752
435.15041
447.17563
457.03795
465.13898
471.80647
477.30371
481.84227
485.59298
488.69458
491.26023
493.38264
42.701066
42.877291
43.750806
46.406993
52.257252
62.921697
79.093416
100.29771
124.78416
151.1767
182.58759
221.45881
260.16945
295.11807
327.42715
356.54375
381.67372
402.92383
420.66513
435.31108
447.33037
457.18792
465.28519
471.94974
477.44471
481.98151
485.7309
488.83151
491.39646
493.5184
42.700203
42.875318
43.743021
46.384236
52.212802
62.855042
79.020915
100.23811
124.75719
151.18926
182.64172
221.55492
260.29511
295.27276
327.60344
356.72607
381.85374
403.09812
420.8324
435.47143
447.48481
457.3376
465.43112
472.09274
477.58543
482.12049
485.86855
488.96819
491.53244
493.65391
42.699345
42.873366
43.735277
46.361561
52.168399
62.788377
78.948264
100.17826
124.73
151.20163
182.69565
221.6508
260.42056
295.42723
327.77944
356.90807
382.03342
403.27206
420.99932
435.63143
447.63891
457.48694
465.57672
472.23542
477.72584
482.25916
486.0059
489.10456
491.66811
493.78912
42.69849
42.871431
43.727587
46.338964
52.124079
62.721699
78.875462
100.11817
124.7026
151.21383
182.74938
221.74646
260.54582
295.5815
327.95518
357.08977
382.21279
403.44569
421.16594
435.79115
447.79274
457.63604
465.72208
472.37786
477.86602
482.39759
486.14302
489.2407
491.80356
493.9241
42.69764
42.869513
43.719951
46.316436
52.079826
62.655008
78.802509
100.05785
124.67498
151.22583
182.80291
221.84189
260.67089
295.73557
328.13067
357.27117
382.39182
403.61897
421.3322
435.95051
447.94622
457.78479
465.86711
472.51998
478.00588
482.53572
486.27983
489.37654
491.93871
494.05878
42.696794
42.867612
43.712362
46.293993
52.035631
62.588315
78.729407
99.997273
124.64714
151.23766
182.85622
221.93711
260.79577
295.88946
328.30592
357.45228
382.57055
403.79194
421.49816
436.10959
448.09944
457.93329
466.01189
472.66186
478.1455
482.6736
486.4164
489.51214
492.07362
494.19323
42.695952
42.865729
43.704816
46.271615
51.991532
62.521609
78.656152
99.936458
124.61907
151.24929
182.90933
222.03211
260.92046
296.04317
328.48091
357.6331
382.74896
403.96459
421.66379
436.26836
448.25234
458.08148
466.15637
472.80344
478.28483
482.8112
486.55269
489.64746
492.20825
494.3274
42.695114
42.863862
43.697312
46.249329
51.947486
62.454897
78.58275
99.875399
124.59079
151.26074
182.96223
222.12689
261.04498
296.1967
328.65569
357.81366
382.92712
404.13696
421.82917
436.42687
448.40501
458.22945
466.30063
472.94481
478.42396
482.9486
486.68878
489.78258
492.34268
494.46136
42.69428
42.862013
43.689854
46.227106
51.903527
62.388179
78.509196
99.814088
124.56228
151.27199
183.01491
222.22143
261.16932
296.35005
328.83023
357.99394
383.10495
404.30901
421.99421
436.58505
448.55736
458.3771
466.44459
473.08587
478.56277
483.08569
486.82457
489.91741
492.47681
494.59504
42.69345
42.860181
43.682452
46.204976
51.859642
62.321454
78.435497
99.752533
124.53354
151.28304
183.06735
222.31574
261.29349
296.50323
329.00456
358.17396
383.2825
404.48077
422.15896
436.74296
448.70943
458.52449
466.58829
473.22669
478.70136
483.22256
486.96013
490.052
492.61072
494.72849
42.692624
42.858365
43.675102
46.18292
51.815821
62.25473
78.361647
99.690732
124.50456
151.29389
183.11956
222.40981
261.41745
296.65624
329.17864
358.3537
383.45976
404.65222
422.3234
436.90055
448.86121
458.67159
466.7317
473.36723
478.83966
483.35914
487.09541
490.18632
492.74435
494.86166
42.691804
42.856567
43.667794
46.16094
51.7721
62.187997
78.287653
99.628679
124.47536
151.30453
183.17153
222.50365
261.54124
296.80909
329.35252
358.53321
383.63678
404.82342
422.4876
437.05792
449.01277
458.81848
466.87492
473.50757
478.97776
483.49553
487.2305
490.32045
492.8778
494.99466
42.690987
42.854786
43.660527
46.139052
51.728439
62.121261
78.21351
99.566377
124.44592
151.31496
183.22325
222.59725
261.66487
296.96178
329.5262
358.71246
383.8135
404.99432
422.65149
437.21499
449.16404
458.96509
467.01784
473.64762
479.1156
483.63165
487.36532
490.45431
493.01098
495.12738
42.690175
42.853021
43.653302
46.117228
51.684868
62.054533
78.139224
99.503827
124.41625
151.32519
183.27473
222.6906
261.78833
297.11432
329.69969
358.89149
383.98998
405.16497
422.81513
437.37181
449.31507
459.11146
467.16055
473.78747
479.25321
483.76756
487.49994
490.58797
493.14396
495.2599
42.689366
42.851273
43.64613
46.095504
51.64138
61.987796
78.064791
99.441025
124.38635
151.33521
183.32597
222.78372
261.91162
297.26672
329.87297
359.07027
384.16621
405.33534
422.97849
437.52835
449.46582
459.25756
467.30299
473.92704
479.39057
483.90321
487.63429
490.72137
493.27668
495.39216
42.688561
42.849542
43.639012
46.073845
51.597961
61.921063
77.990217
99.37797
124.35621
151.345
183.37695
222.8766
262.03474
297.41897
330.04608
359.24885
384.34221
405.50549
423.14163
437.68468
449.61637
459.40347
467.44525
474.06644
479.52775
484.03868
487.76847
490.8546
493.40923
495.52426
42.687759
42.847828
43.631939
46.052282
51.554646
61.854334
77.915498
99.314666
124.32584
151.35458
183.42765
222.96923
262.15771
297.57109
330.21901
359.4272
384.51795
405.67536
423.30448
437.84073
449.76665
459.54911
467.58723
474.20557
479.66466
484.17389
487.90239
490.98757
493.54151
495.65609
42.686961
42.846132
43.624907
46.030799
51.511399
61.787602
77.84064
99.251109
124.29523
151.36392
183.47809
223.06161
262.28052
297.72308
330.39178
359.60535
384.69347
405.84499
423.4671
437.99656
449.91671
459.69454
467.72901
474.3445
479.80138
484.30891
488.03613
491.12034
493.67362
495.78774
42.686167
42.844452
43.617917
46.009391
51.468245
61.720881
77.765639
99.187295
124.26436
151.37305
183.52827
223.15375
262.40318
297.87496
330.56437
359.7833
384.86877
406.01439
423.62948
438.15214
450.06653
459.83973
467.87056
474.4832
479.93786
484.44369
488.16962
491.25289
493.80549
495.91916
42.685376
42.842789
43.610968
45.988084
51.425182
61.65416
77.690501
99.123233
124.23325
151.38194
183.57817
223.24565
262.52568
298.02671
330.73682
359.96108
385.04389
406.18361
423.79167
438.30754
450.21618
459.98476
468.01194
474.62174
480.07419
484.57832
488.30297
491.38529
493.93721
496.05044
42.684589
42.841141
43.604074
45.96684
51.382194
61.587444
77.615224
99.058918
124.2019
151.39061
183.62778
223.3373
262.64804
298.17836
330.90912
360.13865
385.21878
406.35257
423.95361
438.46269
450.36557
460.12953
468.15308
474.76003
480.21028
484.71272
488.43608
491.51745
494.0687
496.18147
42.683805
42.83951
43.597232
45.945704
51.339313
61.520743
77.539811
98.994345
124.17031
151.39904
183.67712
223.4287
262.77026
298.3299
331.08128
360.31605
385.39346
406.52133
424.11534
438.61763
450.51477
460.27412
468.29404
474.89815
480.3462
484.84694
488.56902
491.64945
494.20002
496.31234
42.683024
42.837896
43.590431
45.924636
51.296507
61.454041
77.464262
98.929523
124.13847
151.40722
183.72617
223.51985
262.89234
298.48134
331.25329
360.49327
385.56795
406.68987
424.27684
438.77235
450.66375
460.41849
468.43477
475.03605
480.48189
484.98094
488.70174
491.78122
494.33112
496.443
42.682247
42.8363
43.583671
45.903661
51.253798
61.387348
77.388579
98.864448
124.10638
151.41517
183.77492
223.61076
263.01429
298.63269
331.42519
360.67036
385.74229
406.85825
424.43818
438.92692
450.81258
460.56271
468.57537
475.17381
480.61746
485.11481
488.83434
491.91287
494.4621
496.57353
42.681473
42.834719
43.57695
45.882775
51.211188
61.320677
77.312764
98.799114
124.07404
151.42287
183.82338
223.70141
263.13611
298.78396
331.59697
360.84727
385.91644
407.02643
424.59931
439.08127
450.96119
460.70672
468.71576
475.31136
480.75281
485.24848
488.96672
492.04431
494.59287
496.70385
42.680702
42.833153
43.57027
45.861962
51.168657
61.254004
77.236816
98.73353
124.04145
151.43032
183.87153
223.79183
263.25781
298.93515
331.76865
361.02404
386.09042
407.19442
424.76025
439.23544
451.10963
460.85057
468.85598
475.44876
480.88801
485.38199
489.09896
492.1756
494.72349
496.83402
42.679935
42.831602
43.563645
45.841257
51.126237
61.187348
77.16074
98.667695
124.00861
151.43753
183.91939
223.882
263.37939
299.08627
331.9402
361.20067
386.26422
407.36222
424.921
439.38941
451.25788
460.99422
468.99602
475.58597
481.02302
485.51531
489.231
492.30671
494.85392
496.96401
42.67917
42.830066
43.557069
45.820616
51.0839
61.12071
77.084533
98.601601
123.97551
151.44448
183.96693
223.97193
263.50087
299.23732
332.11166
361.37718
386.43791
407.5299
425.08162
439.54326
451.40601
461.13776
469.13593
475.72306
481.15792
485.64852
489.36294
492.4377
494.98425
497.09389
42.678409
42.828544
43.550532
45.800083
51.041662
61.054076
77.008203
98.535257
123.94215
151.45117
184.01417
224.06162
263.62222
299.3883
332.28303
361.55355
386.61142
407.69738
425.24204
439.6969
451.55393
461.28109
469.27565
475.85995
481.29262
485.78154
489.49468
492.5685
495.11438
497.22358
42.67765
42.827037
43.544034
45.779627
50.99953
60.987464
76.931741
98.468662
123.90854
151.45761
184.06109
224.15106
263.74347
299.53924
332.45431
361.72979
386.78479
407.86472
425.4023
439.85039
451.70171
461.42428
469.41523
475.99671
481.42719
485.91443
489.62629
492.69917
495.24439
497.35314
42.676895
42.825545
43.537574
45.759254
50.957482
60.920871
76.85516
98.401808
123.87468
151.46379
184.1077
224.24026
263.86463
299.69012
332.62549
361.90591
386.95801
408.03188
425.56238
440.00371
451.84932
461.56731
469.55465
476.1333
481.56159
486.04715
489.75774
492.82968
495.37423
497.48254
42.676143
42.824066
43.531153
45.738985
50.915547
60.854285
76.778452
98.334706
123.84055
151.46971
184.154
224.32924
263.98571
299.84096
332.79661
362.08193
387.13113
408.19894
425.72237
440.15693
451.99682
461.71024
469.69397
476.26981
481.6959
486.17978
489.8891
492.9601
495.50398
497.61185
42.675393
42.822601
43.524783
45.718779
50.873702
60.787725
76.701626
98.267353
123.80617
151.47536
184.19997
224.41798
264.1067
299.99176
332.96765
362.25784
387.3041
408.36583
425.88217
440.30996
452.14415
461.85298
469.83311
476.40613
481.83004
486.31223
490.02028
493.09035
495.63356
497.74099
42.674646
42.82115
43.518461
45.698691
50.831961
60.721184
76.624675
98.199742
123.77153
151.48075
184.24562
224.50649
264.2276
300.14253
333.13863
362.43365
387.47695
408.53258
426.04183
440.46286
452.29135
461.99561
469.97213
476.54234
481.96406
486.44457
490.15136
493.22049
495.76303
497.87001
42.673902
42.819712
43.512177
45.678673
50.790327
60.654653
76.547609
98.131883
123.73662
151.48588
184.29095
224.59477
264.34844
300.29327
333.30952
362.60934
387.64966
408.69919
426.20134
440.61561
452.43839
462.13808
470.111
476.67839
482.09793
486.57677
490.28228
493.35047
495.89236
497.9989
42.67316
42.818287
43.50593
45.658744
50.748785
60.588154
76.470419
98.063771
123.70144
151.49073
184.33595
224.68283
264.46921
300.44398
333.48037
362.78496
387.82229
408.86571
426.36077
440.76828
452.58536
462.28049
470.24981
476.81439
482.23175
486.7089
490.41315
493.4804
496.02162
498.12772
42.672421
42.816875
43.499719
45.638914
50.707356
60.521674
76.393117
97.995404
123.666
151.49532
184.38063
224.77068
264.58993
300.59467
333.65115
362.96047
387.99479
409.03208
426.52003
440.92078
452.73217
462.42273
470.38846
476.95022
482.3654
486.84088
490.54386
493.61018
496.15073
498.25639
42.671685
42.815476
43.493545
45.619149
50.666024
60.455207
76.315694
97.926788
123.6303
151.49964
184.42499
224.85831
264.71058
300.74534
333.82187
363.13588
388.16717
409.19833
426.67917
441.07316
452.87887
462.56487
470.527
477.08596
482.49895
486.97276
490.67447
493.73986
496.27975
498.38497
42.670951
42.814089
43.487412
45.599503
50.6248
60.388776
76.238159
97.857919
123.59433
151.50369
184.46904
224.94573
264.83118
300.896
333.99252
363.31119
388.33943
409.36443
426.83816
441.22539
453.02541
462.70685
470.6654
477.22155
482.63236
487.1045
490.80494
493.86939
496.40862
498.5134
42.670219
42.812714
43.481331
45.579925
50.583684
60.322365
76.160508
97.788795
123.55808
151.50747
184.51277
225.03295
264.95175
301.04663
334.16313
363.48644
388.51162
409.53046
426.99708
441.37757
453.17191
462.84879
470.80375
477.35709
482.76573
487.23619
490.93537
493.99889
496.53746
498.6418
42.66949
42.811352
43.475287
45.56044
50.542665
60.255969
76.082742
97.719422
123.52156
151.51098
184.55619
225.11996
265.07227
301.19725
334.33367
363.66159
388.68368
409.69636
427.15586
441.5296
453.31826
462.99059
470.94196
477.4925
482.89897
487.36775
491.06567
494.12826
496.66616
498.77006
42.668765
42.810003
43.469277
45.541049
50.50176
60.189613
76.004863
97.649791
123.48475
151.51421
184.59931
225.20679
265.19275
301.34785
334.50415
363.83664
388.85565
409.86215
427.31453
441.68153
453.46452
463.1323
471.08009
477.62783
483.03212
487.49924
491.19589
494.25755
496.79479
498.89826
42.668041
42.808665
43.463301
45.521723
50.460958
60.123277
75.926869
97.579907
123.44765
151.51717
184.64213
225.29342
265.31318
301.49841
334.67456
364.01159
389.02748
410.0278
427.47306
441.83331
453.61063
463.27387
471.21809
477.76303
483.16515
487.63059
491.32598
494.38671
496.92329
499.02632
42.66732
42.807338
43.457359
45.502518
50.420266
60.05696
75.848764
97.509773
123.41027
151.51985
184.68467
225.37987
265.43355
301.64895
334.84492
364.18648
389.19926
410.19339
427.63153
441.98505
453.75671
463.41541
471.35605
477.89819
483.29814
487.76192
491.45605
494.51584
497.05177
499.15436
42.6666
42.806021
43.45145
45.483379
50.379683
59.990685
75.770542
97.439379
123.37259
151.52225
184.72695
225.46614
265.55387
301.79945
335.01521
364.36128
389.37092
410.35886
427.78988
442.13666
453.90266
463.55682
471.49389
478.03324
483.43102
487.89313
491.586
494.64486
497.18013
499.28228
42.665883
42.804715
43.445589
45.46433
50.339203
59.924434
75.69221
97.368733
123.33462
151.52437
184.76898
225.55224
265.67411
301.94992
335.18544
364.53599
389.54249
410.52423
427.94812
442.28818
454.04853
463.69817
471.63166
478.16822
483.56383
488.02428
491.71589
494.77383
497.30844
499.41015
42.665168
42.80342
43.439768
45.445377
50.298836
59.858201
75.61376
97.297833
123.29634
151.5262
184.81076
225.63817
265.79428
302.10034
335.3556
364.71059
389.71394
410.68946
428.10624
442.43957
454.19427
463.83938
471.76931
478.30308
483.69653
488.15531
491.84566
494.90267
497.43662
499.5379
42.664454
42.802134
43.43398
45.426486
50.258577
59.792014
75.535199
97.226672
123.25776
151.52775
184.85229
225.72393
265.91437
302.25074
335.5257
364.88515
389.88534
410.85465
428.2643
442.59092
454.33997
463.98057
471.90693
478.43792
483.8292
488.28632
491.97542
495.0315
497.56479
499.66564
42.663743
42.80086
43.428223
45.407714
50.218431
59.725853
75.456519
97.155257
123.21886
151.52901
184.89357
225.80953
266.03439
302.4011
335.69574
365.05961
390.05663
411.01973
428.42226
442.74216
454.48557
464.12165
472.04445
478.57265
483.96177
488.41723
492.10507
495.16023
497.69286
499.79327
42.663033
42.799596
43.422497
45.389008
50.178392
59.659712
75.377726
97.083584
123.17966
151.52997
184.93461
225.89496
266.15435
302.55141
335.86573
365.234
390.22785
411.18473
428.58014
442.89333
454.63111
464.26267
472.18192
478.70734
484.09431
488.5481
492.23469
495.28892
497.8209
499.92087
42.662324
42.798341
43.416802
45.370386
50.138462
59.593619
75.298816
97.01165
123.14016
151.53064
184.9754
225.98022
266.27423
302.7017
336.03565
365.40829
390.39896
411.34961
428.7379
443.04438
454.77654
464.40359
472.31929
478.84193
484.22674
488.67888
492.36421
495.41751
497.94884
500.04838
42.661617
42.797095
43.411138
45.351864
50.098645
59.527555
75.219787
96.93946
123.10034
151.53102
185.01594
226.06534
266.39404
302.85196
336.20552
365.58253
390.57002
411.51444
428.89562
443.19541
454.92195
464.5445
472.45664
478.97651
484.35916
488.80964
492.49372
495.5461
498.07677
500.17588
42.660912
42.795858
43.405521
45.333403
50.058938
59.461513
75.14064
96.867006
123.06022
151.5311
185.05625
226.15029
266.51379
303.00218
336.37533
365.7567
390.74099
411.67918
429.05325
443.34634
455.06726
464.68531
472.59391
479.11101
484.4915
488.94033
492.62315
495.67461
498.20463
500.3033
42.660208
42.794628
43.399938
45.31505
50.019349
59.39552
75.06137
96.79429
123.01978
151.53089
185.09631
226.2351
266.63348
303.15238
336.54511
365.93081
390.9119
411.84386
429.21082
443.49722
455.21254
464.8261
472.73116
479.24548
484.62382
489.071
492.75257
495.8031
498.33247
500.4307
42.659506
42.793407
43.394383
45.296771
49.979866
59.32956
74.98198
96.721312
122.97901
151.53037
185.13614
226.31975
266.75312
303.30255
336.71482
366.10484
391.08272
412.00845
429.3683
443.64802
455.35773
464.9668
472.86832
479.37987
484.75606
489.20159
492.88191
495.93152
498.46023
500.55804
42.658805
42.792193
43.388857
45.278563
49.940497
59.263625
74.902463
96.648066
122.93793
151.52956
185.17572
226.40426
266.87269
303.4527
336.8845
366.27883
391.2535
412.17301
429.52574
443.79879
455.50291
465.10749
473.00548
479.51427
484.88831
489.33218
493.01126
496.05995
498.58801
500.68538
42.658105
42.790987
43.383359
45.260462
49.901239
59.197736
74.822823
96.574556
122.89654
151.52844
185.21507
226.48862
266.9922
303.60283
337.05413
366.45275
391.42421
412.33748
429.68311
443.94948
455.64801
465.24812
473.14257
479.6486
485.0205
489.46272
493.14055
496.18832
498.71572
500.81266
42.657406
42.789788
43.37789
45.242422
49.862094
59.131889
74.743054
96.500777
122.85483
151.52702
185.25419
226.57284
267.11166
303.75295
337.22373
366.62663
391.59488
412.50191
429.84044
444.10016
455.7931
465.38873
473.27967
479.78293
485.15269
489.59326
493.26984
496.31669
498.84344
500.93995
42.656708
42.788596
43.372447
45.224474
49.823073
59.066068
74.663159
96.426728
122.8128
151.5253
185.29307
226.65693
267.23109
303.90305
337.3933
366.80046
391.76548
412.66628
429.99771
444.25077
455.93814
465.5293
473.41671
479.91722
485.28483
489.72376
493.39909
496.44503
498.97113
501.0672
42.656012
42.787409
43.367051
45.206613
49.784148
59.000291
74.583131
96.352409
122.77045
151.52328
185.33171
226.74087
267.35048
304.05316
337.56285
366.97427
391.93607
412.83063
430.15498
444.40139
456.08319
465.66988
473.55377
480.05153
485.417
489.85428
493.52837
496.57339
499.09884
501.19448
42.655318
42.786228
43.361694
45.18882
49.745317
58.934563