/*--------------------------------*- C++ -*----------------------------------*\
| =========                 |                                                 |
| \\      /  F ield         | OpenFOAM: The Open Source CFD Toolbox           |
|  \\    /   O peration     | Version:  v2012                                 |
|   \\  /    A nd           | Website:  www.openfoam.com                      |
|    \\/     M anipulation  |                                                 |
\*---------------------------------------------------------------------------*/
FoamFile
{
    version     2.0;
    format      ascii;
    class       volVectorField;
    location    "700";
    object      U;
}
// * * * * * * * * * * * * * * * * * * * * * * * * * * * * * * * * * * * * * //

dimensions      [0 1 -1 0 0 0 0];


internalField   nonuniform List<vector> 
24000
(
(29.163774 -0.0078299247 0)
(29.307008 -0.020453944 0)
(29.751852 -0.028722852 0)
(30.589353 -0.02409146 0)
(31.894227 -0.011798845 0)
(33.572854 0.00088364976 0)
(35.397316 0.011097749 0)
(37.154701 0.019264264 0)
(38.589698 0.024208837 0)
(39.532143 0.026151318 0)
(39.925992 0.025774045 0)
(39.431194 0.022145818 0)
(37.83823 0.018951806 0)
(35.425753 0.016444011 0)
(32.287777 0.012823336 0)
(28.610078 0.010538072 0)
(24.774945 0.0086173582 0)
(21.047906 0.0067330876 0)
(17.591375 0.004997186 0)
(14.506956 0.0036842971 0)
(11.828302 0.0026435136 0)
(9.5347193 0.001836086 0)
(7.5847523 0.001229363 0)
(5.9335581 0.00078841957 0)
(4.5391539 0.00047932245 0)
(3.3640959 0.00027138702 0)
(2.3756451 0.00013840606 0)
(1.545472 5.9001292e-05 0)
(0.84922864 1.7649686e-05 0)
(0.26609495 8.663843e-07 0)
(29.150275 -0.0084780842 0)
(29.294261 -0.022701661 0)
(29.740615 -0.03204888 0)
(30.5776 -0.025596818 0)
(31.879117 -0.0096610983 0)
(33.554624 0.0065245912 0)
(35.374509 0.019354054 0)
(37.128927 0.028486054 0)
(38.562383 0.032505103 0)
(39.504241 0.031950701 0)
(39.897396 0.02990959 0)
(39.401749 0.026662407 0)
(37.80801 0.023592508 0)
(35.393634 0.020018746 0)
(32.252936 0.016221434 0)
(28.573314 0.012638615 0)
(24.736614 0.009617807 0)
(21.008291 0.0071448436 0)
(17.55113 0.0051838046 0)
(14.46702 0.0036724314 0)
(11.789783 0.002539245 0)
(9.4987874 0.0017077821 0)
(7.5524404 0.0011119821 0)
(5.905608 0.00069605381 0)
(4.515962 0.00041420245 0)
(3.3457458 0.00023000881 0)
(2.361983 0.0001149502 0)
(1.5361902 4.7719544e-05 0)
(0.84393711 1.3639547e-05 0)
(0.26437461 5.7039912e-07 0)
(29.138274 -0.0087650474 0)
(29.281267 -0.023440605 0)
(29.724692 -0.032849883 0)
(30.556561 -0.025707806 0)
(31.853638 -0.0090613731 0)
(33.526273 0.0081017697 0)
(35.345166 0.021893891 0)
(37.1003 0.030828311 0)
(38.535755 0.03441727 0)
(39.479142 0.033338186 0)
(39.87318 0.030494569 0)
(39.378253 0.026816427 0)
(37.785186 0.022853971 0)
(35.37057 0.018472156 0)
(32.229024 0.013979245 0)
(28.55 0.0099255119 0)
(24.715657 0.0067170426 0)
(20.991001 0.0043250316 0)
(17.538391 0.0026582438 0)
(14.459049 0.0015673052 0)
(11.785976 0.00089313545 0)
(9.4981208 0.00049283002 0)
(7.5538308 0.0002636212 0)
(5.908114 0.00013580172 0)
(4.5188601 6.6646797e-05 0)
(3.3485319 3.087645e-05 0)
(2.3643388 1.3044091e-05 0)
(1.5379389 4.6751846e-06 0)
(0.84500095 1.0621763e-06 0)
(0.26474065 2.2899575e-07 0)
(29.125684 -0.00896688 0)
(29.26807 -0.023946339 0)
(29.709896 -0.033370791 0)
(30.538303 -0.025807471 0)
(31.831551 -0.0086604319 0)
(33.500908 0.009162146 0)
(35.318333 0.023582543 0)
(37.073147 0.032487195 0)
(38.509241 0.036014158 0)
(39.453186 0.034794351 0)
(39.847419 0.031827662 0)
(39.352331 0.027925151 0)
(37.75899 0.023779381 0)
(35.343386 0.019275986 0)
(32.200702 0.014727939 0)
(28.522428 0.01068769 0)
(24.690381 0.0075228619 0)
(20.968792 0.0051527445 0)
(17.519544 0.0034545319 0)
(14.443447 0.0022771631 0)
(11.773201 0.0014799098 0)
(9.4877286 0.00094527498 0)
(7.5454543 0.00059013719 0)
(5.9014615 0.0003571206 0)
(4.5136933 0.00020688935 0)
(3.3446478 0.000112493 0)
(2.36156 5.5347251e-05 0)
(1.536109 2.2766331e-05 0)
(0.84398337 6.4517448e-06 0)
(0.2644174 3.9310612e-07 0)
(29.112994 -0.0090912492 0)
(29.254798 -0.024207768 0)
(29.695161 -0.03360737 0)
(30.520228 -0.025840666 0)
(31.809607 -0.0084559728 0)
(33.475757 0.0097294361 0)
(35.291661 0.024511838 0)
(37.046074 0.033414175 0)
(38.482703 0.036948504 0)
(39.427173 0.03569597 0)
(39.821565 0.032654087 0)
(39.326231 0.028660556 0)
(37.73257 0.024369899 0)
(35.316018 0.019747118 0)
(32.172289 0.015095144 0)
(28.494816 0.010963716 0)
(24.66508 0.007714907 0)
(20.946591 0.0052708146 0)
(17.500832 0.0035141029 0)
(14.42822 0.0022969291 0)
(11.761078 0.0014773534 0)
(9.4782144 0.00093326227 0)
(7.5380806 0.00057633083 0)
(5.8958291 0.00034527896 0)
(4.5094745 0.00019825588 0)
(3.3415773 0.0001070021 0)
(2.3594244 5.2327547e-05 0)
(1.534737 2.1393679e-05 0)
(0.8432371 5.9990204e-06 0)
(0.26418577 3.8751375e-07 0)
(29.100215 -0.0091672574 0)
(29.241516 -0.024347762 0)
(29.680606 -0.033733953 0)
(30.502505 -0.025878259 0)
(31.788035 -0.0083581327 0)
(33.451026 0.010052177 0)
(35.265357 0.025067296 0)
(37.019289 0.033992432 0)
(38.45635 0.037569002 0)
(39.401254 0.036325369 0)
(39.795723 0.033268495 0)
(39.300011 0.029224709 0)
(37.705874 0.024850947 0)
(35.288245 0.020152189 0)
(32.14335 0.015432191 0)
(28.46657 0.011238794 0)
(24.639067 0.0079334214 0)
(20.923634 0.0054403028 0)
(17.481351 0.0036424378 0)
(14.412232 0.002391696 0)
(11.748218 0.0015453766 0)
(9.4680088 0.00098046643 0)
(7.5300814 0.00060783846 0)
(5.8896528 0.00036533841 0)
(4.5048026 0.00021030539 0)
(3.3381475 0.00011364866 0)
(2.3570209 5.5594311e-05 0)
(1.5331827 2.2745642e-05 0)
(0.84238678 6.4093188e-06 0)
(0.26392026 4.0712057e-07 0)
(29.087398 -0.0092121505 0)
(29.228245 -0.024417676 0)
(29.666156 -0.033806226 0)
(30.484953 -0.025925188 0)
(31.766635 -0.0083341691 0)
(33.426496 0.010217929 0)
(35.239237 0.025399069 0)
(36.992661 0.034347476 0)
(38.430115 0.037969732 0)
(39.375415 0.036746353 0)
(39.769917 0.033688123 0)
(39.27374 0.029612368 0)
(37.679022 0.025180392 0)
(35.260232 0.020426506 0)
(32.114095 0.015656323 0)
(28.437942 0.011416941 0)
(24.612635 0.0080701352 0)
(20.900253 0.00554178 0)
(17.461465 0.0037155727 0)
(14.395875 0.0024429969 0)
(11.735036 0.0015804274 0)
(9.4575283 0.0010037866 0)
(7.5218531 0.00062289652 0)
(5.8832899 0.0003747231 0)
(4.4999828 0.0002158846 0)
(3.3346045 0.00011680327 0)
(2.3545355 5.7204632e-05 0)
(1.5315743 2.3405012e-05 0)
(0.84150641 6.5870038e-06 0)
(0.26364533 4.1402582e-07 0)
(29.074564 -0.0092382678 0)
(29.214993 -0.024450678 0)
(29.651786 -0.033857156 0)
(30.467523 -0.025986556 0)
(31.74536 -0.0083611006 0)
(33.402103 0.010283669 0)
(35.213251 0.025593185 0)
(36.966156 0.034563396 0)
(38.403977 0.038230244 0)
(39.349649 0.037026989 0)
(39.744151 0.033972843 0)
(39.247445 0.029876114 0)
(37.652067 0.025404319 0)
(35.23205 0.020612012 0)
(32.084616 0.015806784 0)
(28.409045 0.011536111 0)
(24.58591 0.0081618418 0)
(20.876574 0.005610193 0)
(17.441293 0.0037652972 0)
(14.379254 0.002478304 0)
(11.721617 0.0016048099 0)
(9.4468419 0.0010200905 0)
(7.5134501 0.00063340079 0)
(5.8767829 0.00038118544 0)
(4.4950478 0.00021962928 0)
(3.3309733 0.00011872598 0)
(2.3519861 5.806875e-05 0)
(1.5299233 2.3747568e-05 0)
(0.84060239 6.6982829e-06 0)
(0.2633629 4.2211322e-07 0)
(29.061728 -0.0092534623 0)
(29.201763 -0.024465263 0)
(29.637476 -0.033901459 0)
(30.450177 -0.026061689 0)
(31.724173 -0.0084251292 0)
(33.377799 0.010280974 0)
(35.187355 0.025696959 0)
(36.939735 0.034687879 0)
(38.377908 0.038398734 0)
(39.323936 0.037212117 0)
(39.718417 0.034163999 0)
(39.221134 0.030053456 0)
(37.625039 0.025554016 0)
(35.203751 0.020734338 0)
(32.054984 0.015905582 0)
(28.379968 0.011614779 0)
(24.558989 0.0082226728 0)
(20.852699 0.005656168 0)
(17.420933 0.003799305 0)
(14.362459 0.0025029527 0)
(11.708041 0.0016222731 0)
(9.4360179 0.0010321898 0)
(7.5049294 0.0006415755 0)
(5.870178 0.00038655856 0)
(4.490034 0.00022303369 0)
(3.327281 0.00012084275 0)
(2.3493922 5.9268528e-05 0)
(1.5282427 2.4278299e-05 0)
(0.83968174 6.8289327e-06 0)
(0.2630752 4.2260995e-07 0)
(29.048896 -0.0092627195 0)
(29.188553 -0.024472313 0)
(29.623215 -0.033946216 0)
(30.432895 -0.02614899 0)
(31.703052 -0.0085157019 0)
(33.353554 0.010231428 0)
(35.161521 0.025740531 0)
(36.913371 0.03475103 0)
(38.351887 0.038503534 0)
(39.298262 0.037331759 0)
(39.692705 0.034290109 0)
(39.194811 0.03016996 0)
(37.597958 0.025650558 0)
(35.175369 0.020811298 0)
(32.025246 0.015967589 0)
(28.350769 0.011664579 0)
(24.531938 0.0082612052 0)
(20.828691 0.0056852939 0)
(17.400445 0.0038207257 0)
(14.345544 0.0025182658 0)
(11.694356 0.0016328655 0)
(9.425097 0.0010392296 0)
(7.4963258 0.00064602355 0)
(5.8635041 0.00038917963 0)
(4.4849648 0.00022444438 0)
(3.3235461 0.00012144195 0)
(2.3467672 5.9448623e-05 0)
(1.5265414 2.4326024e-05 0)
(0.8387496 6.8603281e-06 0)
(0.26278386 4.2836902e-07 0)
(29.036071 -0.0092690049 0)
(29.175361 -0.0244775 0)
(29.60899 -0.03399408 0)
(30.415664 -0.026246037 0)
(31.681984 -0.0086253955 0)
(33.329352 0.010149243 0)
(35.135732 0.025743002 0)
(36.88705 0.03477092 0)
(38.325901 0.038561648 0)
(39.272617 0.037404286 0)
(39.66701 0.034370064 0)
(39.168481 0.030243175 0)
(37.570839 0.025709847 0)
(35.146927 0.020857711 0)
(31.995437 0.016004704 0)
(28.321489 0.01169457 0)
(24.504801 0.0082849883 0)
(20.804598 0.0057037749 0)
(17.379875 0.0038347788 0)
(14.328551 0.0025286373 0)
(11.6806 0.0016402876 0)
(9.4141133 0.0010443899 0)
(7.4876679 0.00064949863 0)
(5.8567848 0.00039144636 0)
(4.4798588 0.00022586394 0)
(3.3197827 0.00012234253 0)
(2.3441214 5.9964478e-05 0)
(1.5248262 2.4544748e-05 0)
(0.83780963 6.9137891e-06 0)
(0.26249004 4.2803482e-07 0)
(29.023254 -0.0092738599 0)
(29.162185 -0.02448307 0)
(29.594797 -0.034045914 0)
(30.398473 -0.02635207 0)
(31.660959 -0.0087496225 0)
(33.305182 0.010043521 0)
(35.109978 0.025716213 0)
(36.86076 0.034761571 0)
(38.299943 0.038587595 0)
(39.246994 0.037443704 0)
(39.641329 0.034417743 0)
(39.142145 0.030286251 0)
(37.543694 0.025743403 0)
(35.118445 0.020882584 0)
(31.965583 0.016023445 0)
(28.292161 0.011709402 0)
(24.477612 0.0082968979 0)
(20.780454 0.0057131476 0)
(17.359253 0.0038420291 0)
(14.311508 0.0025341256 0)
(11.666795 0.0016442327 0)
(9.4030837 0.0010470662 0)
(7.4789687 0.00065118539 0)
(5.8500298 0.00039240982 0)
(4.4747233 0.00022633943 0)
(3.315996 0.0001224511 0)
(2.3414582 5.9923468e-05 0)
(1.5230993 2.4510682e-05 0)
(0.83686312 6.9176859e-06 0)
(0.26219413 4.3152872e-07 0)
(29.010445 -0.0092780309 0)
(29.149022 -0.024489872 0)
(29.580632 -0.034101517 0)
(30.381319 -0.026466162 0)
(31.639973 -0.0088845493 0)
(33.281035 0.0099212522 0)
(35.084251 0.025666417 0)
(36.834496 0.034730159 0)
(38.274005 0.038591086 0)
(39.221389 0.037460076 0)
(39.615659 0.034442783 0)
(39.115806 0.030308561 0)
(37.51653 0.025759066 0)
(35.089937 0.020891885 0)
(31.935702 0.016029789 0)
(28.262807 0.011715201 0)
(24.450399 0.0083020323 0)
(20.756286 0.0057178187 0)
(17.33861 0.0038462716 0)
(14.294442 0.0025378823 0)
(11.652967 0.001647358 0)
(9.3920326 0.0010495439 0)
(7.47025 0.00065310747 0)
(5.843258 0.00039386828 0)
(4.4695739 0.0002274065 0)
(3.3121983 0.00012326094 0)
(2.3387869 6.0463102e-05 0)
(1.5213669 2.4767203e-05 0)
(0.83591351 6.9718273e-06 0)
(0.26189723 4.2772757e-07 0)
(28.997643 -0.0092819526 0)
(29.135872 -0.024498549 0)
(29.566492 -0.034160069 0)
(30.364198 -0.026586099 0)
(31.619021 -0.0090276519 0)
(33.256907 0.0097861615 0)
(35.058544 0.025599815 0)
(36.808249 0.034683282 0)
(38.248083 0.038577689 0)
(39.195798 0.037459605 0)
(39.589999 0.034450721 0)
(39.089465 0.03031481 0)
(37.489351 0.025760139 0)
(35.06141 0.020888411 0)
(31.905804 0.016025754 0)
(28.23344 0.011712664 0)
(24.423175 0.0083005259 0)
(20.732106 0.0057171996 0)
(17.317953 0.0038462465 0)
(14.277361 0.002538184 0)
(11.639123 0.0016476718 0)
(9.3809649 0.0010497209 0)
(7.4615158 0.00065311444 0)
(5.8364723 0.00039373588 0)
(4.4644128 0.00022719665 0)
(3.3083913 0.00012297151 0)
(2.3361088 6.0207361e-05 0)
(1.5196299 2.4635003e-05 0)
(0.8349613 6.9501053e-06 0)
(0.26159951 4.3111622e-07 0)
(28.984849 -0.0092859672 0)
(29.122733 -0.024509549 0)
(29.552377 -0.034220935 0)
(30.347106 -0.026710488 0)
(31.598102 -0.0091755687 0)
(33.232793 0.0096438651 0)
(35.032854 0.025521358 0)
(36.782017 0.034624782 0)
(38.222174 0.038550096 0)
(39.170218 0.03744565 0)
(39.564345 0.034445292 0)
(39.063123 0.030308831 0)
(37.462163 0.025750876 0)
(35.03287 0.020876992 0)
(31.8759 0.016015186 0)
(28.204073 0.011704596 0)
(24.395952 0.0082951693 0)
(20.707931 0.0057141091 0)
(17.2973 0.0038447843 0)
(14.260282 0.0025376906 0)
(11.625277 0.0016476822 0)
(9.3698937 0.0010499559 0)
(7.4527772 0.00065341989 0)
(5.8296821 0.0003940413 0)
(4.4592475 0.00022746729 0)
(3.3045808 0.00012324128 0)
(2.3334279 6.0410159e-05 0)
(1.5178909 2.4726567e-05 0)
(0.83400797 6.9669905e-06 0)
(0.26130143 4.285082e-07 0)
(28.97206 -0.009290199 0)
(29.109604 -0.024522537 0)
(29.538281 -0.034283127 0)
(30.330042 -0.026838014 0)
(31.577211 -0.0093270355 0)
(33.208692 0.0094959475 0)
(35.007179 0.025433089 0)
(36.755798 0.034557638 0)
(38.196276 0.038512562 0)
(39.144648 0.037422295 0)
(39.5387 0.034430465 0)
(39.036781 0.030294391 0)
(37.434969 0.025734694 0)
(35.004324 0.020859772 0)
(31.845998 0.015999382 0)
(28.174714 0.011692008 0)
(24.368742 0.008285952 0)
(20.683769 0.0057078297 0)
(17.276659 0.0038407645 0)
(14.243208 0.0025352154 0)
(11.611433 0.0016461563 0)
(9.35882 0.0010489957 0)
(7.444034 0.00065275939 0)
(5.8228865 0.00039355155 0)
(4.4540769 0.0002270925 0)
(3.3007656 0.00012290081 0)
(2.3307432 6.0157799e-05 0)
(1.5161494 2.4605239e-05 0)
(0.83305313 6.9441167e-06 0)
(0.26100286 4.3060292e-07 0)
(28.959277 -0.0092945025 0)
(29.096484 -0.024536456 0)
(29.524203 -0.034346222 0)
(30.313003 -0.026969271 0)
(31.556349 -0.0094809451 0)
(33.184602 0.0093444305 0)
(34.981516 0.025335667 0)
(36.729589 0.034483556 0)
(38.170388 0.038469341 0)
(39.119088 0.037394219 0)
(39.51306 0.034410408 0)
(39.010439 0.030275436 0)
(37.407771 0.025714712 0)
(34.975776 0.020839022 0)
(31.816101 0.015981386 0)
(28.145371 0.01167884 0)
(24.341553 0.0082766128 0)
(20.659631 0.0057017848 0)
(17.256039 0.0038373017 0)
(14.226153 0.0025335564 0)
(11.597602 0.0016456089 0)
(9.3477566 0.0010490593 0)
(7.435298 0.00065315119 0)
(5.8160959 0.0003940728 0)
(4.4489096 0.0002276154 0)
(3.2969525 0.00012341831 0)
(2.3280599 6.0556974e-05 0)
(1.5144086 2.4809807e-05 0)
(0.83209872 6.9842092e-06 0)
(0.26070441 4.2552885e-07 0)
(28.946499 -0.0092986613 0)
(29.083372 -0.024550676 0)
(29.510146 -0.034409685 0)
(30.295988 -0.027103913 0)
(31.535513 -0.0096362083 0)
(33.160519 0.0091914435 0)
(34.955862 0.025230893 0)
(36.703386 0.034403159 0)
(38.144505 0.038420507 0)
(39.093533 0.037362308 0)
(39.487425 0.034385943 0)
(38.984097 0.030252116 0)
(37.380569 0.025690454 0)
(34.947225 0.02081446 0)
(31.786212 0.015959998 0)
(28.116043 0.011662434 0)
(24.314383 0.0082644757 0)
(20.635512 0.0056931609 0)
(17.235438 0.0038314069 0)
(14.209111 0.0025296991 0)
(11.583781 0.0016430293 0)
(9.3366986 0.0010472888 0)
(7.4265649 0.00065188354 0)
(5.8093065 0.00039312954 0)
(4.4437426 0.00022690943 0)
(3.2931393 0.00012284187 0)
(2.3253763 6.0151949e-05 0)
(1.5126676 2.4612881e-05 0)
(0.83114408 6.9443858e-06 0)
(0.26040589 4.2879175e-07 0)
(28.933727 -0.0093026176 0)
(29.070269 -0.024565358 0)
(29.496107 -0.034473266 0)
(30.278998 -0.027240186 0)
(31.514703 -0.0097915245 0)
(33.136444 0.0090382057 0)
(34.930217 0.025121778 0)
(36.677189 0.03431967 0)
(38.118626 0.038366408 0)
(39.067983 0.037324479 0)
(39.461794 0.034356295 0)
(38.957756 0.030224128 0)
(37.353365 0.025662627 0)
(34.918675 0.020787702 0)
(31.756334 0.015936769 0)
(28.086736 0.01164414 0)
(24.287239 0.0082512822 0)
(20.611421 0.0056842043 0)
(17.214863 0.0038256914 0)
(14.192092 0.0025262633 0)
(11.569976 0.0016410412 0)
(9.3256532 0.0010461891 0)
(7.4178411 0.00065134184 0)
(5.8025239 0.00039292807 0)
(4.4385804 0.00022689498 0)
(3.2893293 0.00012296904 0)
(2.3226948 6.0295386e-05 0)
(1.5109278 2.468491e-05 0)
(0.83019013 6.9558967e-06 0)
(0.26010757 4.2547123e-07 0)
(28.920959 -0.0093064138 0)
(29.057175 -0.024580619 0)
(29.482087 -0.034536728 0)
(30.262031 -0.027377314 0)
(31.493916 -0.0099455808 0)
(33.112376 0.0088868238 0)
(34.904579 0.025008896 0)
(36.650998 0.034233727 0)
(38.092753 0.038309029 0)
(39.042439 0.037281257 0)
(39.436167 0.034322161 0)
(38.931416 0.030192028 0)
(37.32616 0.025631529 0)
(34.890129 0.02075792 0)
(31.72647 0.015910868 0)
(28.057452 0.011623693 0)
(24.260122 0.0082359109 0)
(20.587359 0.0056732954 0)
(17.194314 0.0038182583 0)
(14.175092 0.0025212998 0)
(11.556186 0.0016377316 0)
(9.314617 0.0010439697 0)
(7.4091228 0.0006498154 0)
(5.7957444 0.00039186466 0)
(4.4334197 0.00022615147 0)
(3.28552 0.00012239362 0)
(2.3200135 5.9907496e-05 0)
(1.509188 2.4501173e-05 0)
(0.82923609 6.9160996e-06 0)
(0.25980922 4.2764196e-07 0)
(28.908196 -0.0093099834 0)
(29.044089 -0.024595874 0)
(29.468082 -0.034599735 0)
(30.245084 -0.027514351 0)
(31.473152 -0.010098857 0)
(33.088313 0.0087350811 0)
(34.878949 0.02489271 0)
(36.62481 0.034145972 0)
(38.066884 0.038250715 0)
(39.016901 0.037236183 0)
(39.410545 0.034286132 0)
(38.905078 0.030158254 0)
(37.298958 0.025598994 0)
(34.861588 0.020726742 0)
(31.696624 0.015884649 0)
(28.028197 0.01160428 0)
(24.23304 0.0082218666 0)
(20.563333 0.0056638281 0)
(17.173799 0.0038123428 0)
(14.158123 0.0025178612 0)
(11.54242 0.0016359343 0)
(9.3036003 0.0010431832 0)
(7.4004199 0.00064964691 0)
(5.7889767 0.00039203589 0)
(4.428268 0.00022647157 0)
(3.2817173 0.00012280778 0)
(2.3173368 6.0259305e-05 0)
(1.5074512 2.4686199e-05 0)
(0.82828369 6.9506153e-06 0)
(0.25951137 4.2173992e-07 0)
(28.895439 -0.0093130694 0)
(29.03101 -0.024610179 0)
(29.454093 -0.034662088 0)
(30.228156 -0.027651872 0)
(31.45241 -0.010251939 0)
(33.064255 0.0085834305 0)
(34.853324 0.024775722 0)
(36.598624 0.034056353 0)
(38.041019 0.038189432 0)
(38.991367 0.037188142 0)
(39.384928 0.034247136 0)
(38.878743 0.030121672 0)
(37.271758 0.025563549 0)
(34.833055 0.020692943 0)
(31.666796 0.01585567 0)
(27.99897 0.011581781 0)
(24.205991 0.0082051732 0)
(20.539341 0.0056518416 0)
(17.153315 0.0038039759 0)
(14.141177 0.002512194 0)
(11.528672 0.0016320695 0)
(9.2925972 0.0010405316 0)
(7.3917268 0.00064777736 0)
(5.782216 0.00039069192 0)
(4.4231214 0.00022551074 0)
(3.2779181 0.00012206966 0)
(2.3146625 5.9759815e-05 0)
(1.5057159 2.4444969e-05 0)
(0.82733212 6.8976005e-06 0)
(0.25921379 4.2484881e-07 0)
(28.882686 -0.0093154874 0)
(29.017941 -0.024623235 0)
(29.440122 -0.03472339 0)
(30.211248 -0.027789393 0)
(31.431685 -0.010405398 0)
(33.040206 0.0084310089 0)
(34.827704 0.024658356 0)
(36.572441 0.033965756 0)
(38.015157 0.038125761 0)
(38.965837 0.037137656 0)
(39.359315 0.034205905 0)
(38.852411 0.03008334 0)
(37.244563 0.025527227 0)
(34.80453 0.020659253 0)
(31.636989 0.015826757 0)
(27.969776 0.011558985 0)
(24.17898 0.008188683 0)
(20.515389 0.0056405524 0)
(17.132869 0.0037966751 0)
(14.124264 0.0025077441 0)
(11.51495 0.001629455 0)
(9.281614 0.0010390675 0)
(7.383049 0.00064704008 0)
(5.7754671 0.00039039537 0)
(4.4179835 0.0002254615 0)
(3.2741253 0.00012219747 0)
(2.3119926 5.9913841e-05 0)
(1.5039834 2.4525238e-05 0)
(0.82638211 6.9112515e-06 0)
(0.25891669 4.2113185e-07 0)
(28.86994 -0.0093173305 0)
(29.004881 -0.024635497 0)
(29.426168 -0.034783322 0)
(30.19436 -0.027925444 0)
(31.410978 -0.010558624 0)
(33.016168 0.008277518 0)
(34.802089 0.024539393 0)
(36.54626 0.033873903 0)
(37.989297 0.038061978 0)
(38.940312 0.037086557 0)
(39.333705 0.034163638 0)
(38.826081 0.030043992 0)
(37.21737 0.02549015 0)
(34.776014 0.020624466 0)
(31.607204 0.015796896 0)
(27.940614 0.011535579 0)
(24.152006 0.0081709864 0)
(20.491474 0.0056279314 0)
(17.112455 0.0037880858 0)
(14.107377 0.0025020735 0)
(11.501247 0.0016257068 0)
(9.2706429 0.0010365844 0)
(7.3743787 0.00064536255 0)
(5.7687225 0.00038924342 0)
(4.4128478 0.00022466761 0)
(3.2703335 0.00012160087 0)
(2.3093231 5.9519564e-05 0)
(1.5022511 2.4339101e-05 0)
(0.8254321 6.8704401e-06 0)
(0.25861957 4.2342925e-07 0)
(28.857199 -0.0093187921 0)
(28.991832 -0.024647147 0)
(29.41223 -0.034841432 0)
(30.177489 -0.028059731 0)
(31.390285 -0.010710896 0)
(32.992139 0.0081240866 0)
(34.776476 0.024419405 0)
(36.520078 0.033781396 0)
(37.963438 0.037998038 0)
(38.914788 0.037035278 0)
(39.308098 0.03412083 0)
(38.799754 0.030004391 0)
(37.190181 0.025452768 0)
(34.747507 0.020589333 0)
(31.57744 0.015767424 0)
(27.911486 0.011513486 0)
(24.125073 0.008154786 0)
(20.467602 0.0056168497 0)
(17.092084 0.0037810636 0)
(14.090526 0.0024979197 0)
(11.487573 0.0016234844 0)
(9.2596956 0.0010355451 0)
(7.3657272 0.00064506345 0)
(5.7619922 0.00038935644 0)
(4.407723 0.00022496769 0)
(3.2665496 0.00012201796 0)
(2.3066591 5.9883011e-05 0)
(1.5005222 2.4535062e-05 0)
(0.82448396 6.9081326e-06 0)
(0.25832304 4.1705842e-07 0)
(28.844465 -0.0093198551 0)
(28.978792 -0.024657555 0)
(29.398307 -0.034897471 0)
(30.160635 -0.028192057 0)
(31.369606 -0.010862253 0)
(32.968119 0.007970166 0)
(34.750866 0.024299535 0)
(36.493896 0.033687685 0)
(37.937581 0.037931575 0)
(38.889268 0.036982143 0)
(39.282495 0.034076031 0)
(38.773431 0.029963133 0)
(37.162997 0.025413515 0)
(34.71901 0.020552503 0)
(31.547699 0.015735705 0)
(27.882391 0.011488376 0)
(24.098178 0.0081358658 0)
(20.443771 0.0056030105 0)
(17.07175 0.0037711887 0)
(14.073707 0.002491053 0)
(11.473925 0.0016187244 0)
(9.2487686 0.0010322541 0)
(7.3570911 0.00064275284 0)
(5.7552737 0.00038772389 0)
(4.4026068 0.00022382046 0)
(3.262772 0.00012115971 0)
(2.3039995 5.9315459e-05 0)
(1.4987962 2.4263212e-05 0)
(0.82353738 6.8469465e-06 0)
(0.258027 4.2048807e-07 0)
(28.831739 -0.0093203183 0)
(28.965763 -0.024665932 0)
(29.384399 -0.034951269 0)
(30.143798 -0.028323773 0)
(31.348942 -0.011013165 0)
(32.944107 0.0078163624 0)
(34.725257 0.024178727 0)
(36.467713 0.03359189 0)
(37.911724 0.037864058 0)
(38.86375 0.036929715 0)
(39.256894 0.034031661 0)
(38.74711 0.029922712 0)
(37.135818 0.025375864 0)
(34.690523 0.020517901 0)
(31.517981 0.015706176 0)
(27.85333 0.011465132 0)
(24.071324 0.0081190207 0)
(20.419982 0.005591375 0)
(17.051457 0.0037634968 0)
(14.056924 0.0024862072 0)
(11.460308 0.0016157844 0)
(9.2378664 0.0010305594 0)
(7.348475 0.00064186854 0)
(5.7485708 0.00038734857 0)
(4.3975027 0.00022373735 0)
(3.2590033 0.000121282 0)
(2.3013461 5.9476039e-05 0)
(1.4970742 2.434947e-05 0)
(0.82259307 6.861947e-06 0)
(0.25773168 4.1635054e-07 0)
(28.81902 -0.0093200407 0)
(28.952745 -0.024672202 0)
(29.370507 -0.035002616 0)
(30.126976 -0.028454401 0)
(31.328289 -0.011163692 0)
(32.920102 0.0076620427 0)
(34.699648 0.024056046 0)
(36.441527 0.033494849 0)
(37.885865 0.037797399 0)
(38.838233 0.036878764 0)
(39.231294 0.033988432 0)
(38.72079 0.029883025 0)
(37.108642 0.025339207 0)
(34.662044 0.02048384 0)
(31.488283 0.015677413 0)
(27.824299 0.011443032 0)
(24.044503 0.0081023888 0)
(20.396228 0.0055794871 0)
(17.031195 0.0037553328 0)
(14.040165 0.0024807352 0)
(11.446707 0.0016120879 0)
(9.2269754 0.0010280558 0)
(7.339866 0.00064013013 0)
(5.7418725 0.00038612531 0)
(4.3924013 0.00022288018 0)
(3.2552362 0.00012062788 0)
(2.2986936 5.9038445e-05 0)
(1.4953527 2.4140603e-05 0)
(0.82164892 6.8152776e-06 0)
(0.2574364 4.1904724e-07 0)
(28.806311 -0.0093191006 0)
(28.939739 -0.024676934 0)
(29.356632 -0.035051271 0)
(30.11017 -0.028582532 0)
(31.30765 -0.01131315 0)
(32.896104 0.0075079017 0)
(34.674038 0.023933657 0)
(36.415336 0.033398528 0)
(37.860002 0.037730102 0)
(38.812714 0.036825937 0)
(39.205695 0.03394441 0)
(38.694471 0.029842869 0)
(37.081468 0.025302527 0)
(34.633573 0.020450053 0)
(31.458604 0.015649476 0)
(27.795299 0.011422382 0)
(24.017719 0.0080874719 0)
(20.372511 0.0055694773 0)
(17.010968 0.0037491978 0)
(14.023437 0.0024772717 0)
(11.433131 0.0016103423 0)
(9.2161049 0.0010273278 0)
(7.3312734 0.00064002902 0)
(5.7351868 0.00038636272 0)
(4.3873096 0.00022326143 0)
(3.2514762 0.00012110084 0)
(2.2960462 5.94346e-05 0)
(1.4936344 2.4350269e-05 0)
(0.82070655 6.85614e-06 0)
(0.25714166 4.1210318e-07 0)
(28.79361 -0.0093176424 0)
(28.926746 -0.024680381 0)
(29.342772 -0.03509706 0)
(30.093379 -0.028707978 0)
(31.287021 -0.011460845 0)
(32.872112 0.0073551313 0)
(34.648427 0.023812238 0)
(36.389142 0.033303316 0)
(37.834138 0.037661698 0)
(38.787198 0.036770402 0)
(39.180098 0.033898439 0)
(38.668156 0.029800892 0)
(37.0543 0.025263779 0)
(34.605114 0.0204142 0)
(31.428949 0.015618706 0)
(27.766332 0.011397967 0)
(23.990972 0.0080691931 0)
(20.348832 0.00555624 0)
(16.990776 0.0037398633 0)
(14.006737 0.0024708515 0)
(11.419578 0.0016059092 0)
(9.2052508 0.0010242537 0)
(7.322693 0.00063785463 0)
(5.7285102 0.00038480278 0)
(4.3822245 0.00022214928 0)
(3.2477211 0.00012025552 0)
(2.2934021 5.8868271e-05 0)
(1.4919183 2.4076663e-05 0)
(0.81976538 6.7944721e-06 0)
(0.2568473 4.1595832e-07 0)
(28.780919 -0.0093156303 0)
(28.913766 -0.024681924 0)
(29.328925 -0.035139909 0)
(30.076601 -0.028830739 0)
(31.266402 -0.011606959 0)
(32.848124 0.007202276 0)
(34.622815 0.023690257 0)
(36.362944 0.033207927 0)
(37.808274 0.037593669 0)
(38.761682 0.036714357 0)
(39.154504 0.033851997 0)
(38.641845 0.029758518 0)
(37.02714 0.025224972 0)
(34.576666 0.020378666 0)
(31.399319 0.015588552 0)
(27.737401 0.011374393 0)
(23.964267 0.0080522085 0)
(20.325197 0.0055446225 0)
(16.970624 0.0037322541 0)
(13.990072 0.002466139 0)
(11.406053 0.0016031423 0)
(9.1944198 0.0010227267 0)
(7.3141308 0.00063711678 0)
(5.7218478 0.00038454141 0)
(4.3771502 0.00022214969 0)
(3.2439738 0.00012043914 0)
(2.2907635 5.9069348e-05 0)
(1.4902058 2.4184219e-05 0)
(0.81882616 6.8153058e-06 0)
(0.25655356 4.1162704e-07 0)
(28.768239 -0.0093128518 0)
(28.9008 -0.024680813 0)
(29.315092 -0.035179742 0)
(30.059835 -0.028952319 0)
(31.245793 -0.011752092 0)
(32.824141 0.0070498713 0)
(34.597199 0.023567984 0)
(36.33674 0.033112675 0)
(37.782406 0.037525897 0)
(38.736167 0.036657838 0)
(39.128911 0.033804618 0)
(38.615536 0.029714888 0)
(36.999985 0.025184954 0)
(34.54823 0.020341684 0)
(31.369712 0.015557479 0)
(27.708504 0.011350585 0)
(23.937601 0.0080342553 0)
(20.3016 0.0055317278 0)
(16.950507 0.0037233044 0)
(13.973434 0.0024600782 0)
(11.392548 0.0015990453 0)
(9.1836023 0.0010199714 0)
(7.3055774 0.00063522668 0)
(5.7151907 0.0003832321 0)
(4.3720791 0.00022124152 0)
(3.2402283 0.00011975989 0)
(2.2881258 5.862222e-05 0)
(1.4884937 2.397188e-05 0)
(0.81788713 6.7678181e-06 0)
(0.25625985 4.1459543e-07 0)
(28.75557 -0.0093091552 0)
(28.887848 -0.024677072 0)
(29.301275 -0.035216587 0)
(30.043082 -0.029072222 0)
(31.225192 -0.011896089 0)
(32.800161 0.0068980685 0)
(34.571579 0.023446488 0)
(36.31053 0.033017117 0)
(37.756535 0.037456457 0)
(38.710651 0.036599759 0)
(39.10332 0.033756001 0)
(38.589232 0.029670796 0)
(36.972837 0.02514516 0)
(34.519807 0.020305628 0)
(31.340131 0.015527665 0)
(27.679644 0.011328341 0)
(23.910978 0.0080180969 0)
(20.278049 0.0055207654 0)
(16.930435 0.0037165126 0)
(13.956835 0.0024561804 0)
(11.379075 0.0015970465 0)
(9.1728111 0.0010191322 0)
(7.2970449 0.00063511191 0)
(5.7085501 0.00038351557 0)
(4.3670204 0.00022168833 0)
(3.2364919 0.00012030139 0)
(2.2854946 5.9076173e-05 0)
(1.4867858 2.4215878e-05 0)
(0.81695036 6.8167713e-06 0)
(0.25596685 4.0666019e-07 0)
(28.742914 -0.009304598 0)
(28.874912 -0.024671355 0)
(29.287474 -0.035250257 0)
(30.02634 -0.0291893 0)
(31.2046 -0.012038906 0)
(32.776184 0.0067464183 0)
(34.545955 0.023325326 0)
(36.284314 0.032921372 0)
(37.730662 0.037386513 0)
(38.685136 0.036541206 0)
(39.077731 0.03370661 0)
(38.562932 0.029626393 0)
(36.945696 0.025104746 0)
(34.491398 0.020268658 0)
(31.310575 0.015495715 0)
(27.650819 0.01130254 0)
(23.884395 0.007998428 0)
(20.254539 0.0055062628 0)
(16.9104 0.0037061686 0)
(13.940268 0.0024489589 0)
(11.365629 0.0015919768 0)
(9.1620402 0.0010155684 0)
(7.288528 0.00063256118 0)
(5.7019212 0.00038167316 0)
(4.3619705 0.00022036944 0)
(3.232762 0.00011929882 0)
(2.2828678 5.8404346e-05 0)
(1.4850808 2.3890082e-05 0)
(0.81601519 6.7419644e-06 0)
(0.25567436 4.1126408e-07 0)
(28.730271 -0.0092993247 0)
(28.861992 -0.02466402 0)
(29.273686 -0.035280746 0)
(30.009609 -0.029303344 0)
(31.184013 -0.012179925 0)
(32.752208 0.0065956912 0)
(34.520325 0.02320357 0)
(36.258091 0.032824585 0)
(37.704785 0.037317486 0)
(38.659621 0.036484655 0)
(39.052143 0.033658444 0)
(38.536636 0.029583548 0)
(36.918563 0.025066064 0)
(34.463 0.020233315 0)
(31.281045 0.015465832 0)
(27.622031 0.011279203 0)
(23.857854 0.0079815098 0)
(20.231073 0.0054946214 0)
(16.890407 0.0036984868 0)
(13.923739 0.002444171 0)
(11.352214 0.0015891448 0)
(9.1512955 0.0010139863 0)
(7.2800325 0.00063179563 0)
(5.6953094 0.00038141617 0)
(4.3569339 0.00022039894 0)
(3.229042 0.00011953298 0)
(2.2802481 5.8651099e-05 0)
(1.4833803 2.4020964e-05 0)
(0.81508254 6.7682117e-06 0)
(0.25538266 4.0638097e-07 0)
(28.717642 -0.0092933039 0)
(28.849089 -0.024654498 0)
(29.25991 -0.035307877 0)
(29.992887 -0.029414317 0)
(31.163433 -0.012319491 0)
(32.728233 0.0064446737 0)
(34.494688 0.023081498 0)
(36.231859 0.032726506 0)
(37.678902 0.037247911 0)
(38.634102 0.036429469 0)
(39.026555 0.033611075 0)
(38.510342 0.029541065 0)
(36.891435 0.025027756 0)
(34.434614 0.020197975 0)
(31.251536 0.015436478 0)
(27.593274 0.011257069 0)
(23.831349 0.0079649573 0)
(20.207642 0.0054827565 0)
(16.870445 0.0036901366 0)
(13.907233 0.0024384337 0)
(11.338815 0.0015851818 0)
(9.1405616 0.0010112318 0)
(7.2715438 0.00062982803 0)
(5.6887017 0.00037998461 0)
(4.3518996 0.00021936264 0)
(3.2253233 0.00011871871 0)
(2.277629 5.8094723e-05 0)
(1.4816802 2.3751302e-05 0)
(0.81415001 6.7064622e-06 0)
(0.25509099 4.102252e-07 0)
(28.705028 -0.0092863223 0)
(28.836203 -0.024641958 0)
(29.246147 -0.035331639 0)
(29.976174 -0.029523918 0)
(31.142857 -0.012458041 0)
(32.704257 0.0062947626 0)