/*--------------------------------*- C++ -*----------------------------------*\
| =========                 |                                                 |
| \\      /  F ield         | OpenFOAM: The Open Source CFD Toolbox           |
|  \\    /   O peration     | Version:  v2012                                 |
|   \\  /    A nd           | Website:  www.openfoam.com                      |
|    \\/     M anipulation  |                                                 |
\*---------------------------------------------------------------------------*/
FoamFile
{
    version     2.0;
    format      ascii;
    class       volScalarField;
    location    "903";
    object      alphat;
}
// * * * * * * * * * * * * * * * * * * * * * * * * * * * * * * * * * * * * * //

dimensions      [1 -1 -1 0 0 0 0];


internalField   nonuniform List<scalar> 
24000
(
0.00051259867
0.00027354778
0.00020815229
0.00020313403
0.00017844028
0.0001457665
0.00011239016
8.7773647e-05
7.5420212e-05
4.4112383e-05
2.4269987e-05
1.7472556e-05
1.4748465e-05
1.0964156e-05
6.6801194e-06
4.0631047e-06
2.389598e-06
1.2318469e-06
5.0413371e-07
1.777071e-07
5.5727989e-08
1.5917516e-08
4.165602e-09
9.8585921e-10
2.0420464e-10
3.4941933e-11
4.5204701e-12
4.5657053e-13
1.4125743e-13
1.5055175e-13
0.00051495808
0.00027494254
0.00020790849
0.000202535
0.00017815973
0.00014567179
0.00011235358
8.7717563e-05
7.5324413e-05
4.4050648e-05
2.4228627e-05
1.7435535e-05
1.4703716e-05
1.0931878e-05
6.6502287e-06
4.0429978e-06
2.3762862e-06
1.2242465e-06
5.0062963e-07
1.7637648e-07
5.5292966e-08
1.5790585e-08
4.1320681e-09
9.7790006e-10
2.0255647e-10
3.465984e-11
4.4833051e-12
4.5196025e-13
1.390577e-13
1.4811378e-13
0.00051739838
0.0002763789
0.00020839035
0.00020252963
0.00017791078
0.00014535214
0.00011202793
8.7375051e-05
7.521804e-05
4.397604e-05
2.4180383e-05
1.7395178e-05
1.4671648e-05
1.0904613e-05
6.6221352e-06
4.0244601e-06
2.3641324e-06
1.2155919e-06
4.9646966e-07
1.7475446e-07
5.4756741e-08
1.5633927e-08
4.0907785e-09
9.6812395e-10
2.0053602e-10
3.4315891e-11
4.4400086e-12
4.4883685e-13
1.3919695e-13
1.4839192e-13
0.00051985671
0.00027783246
0.00020845116
0.00020234678
0.0001776922
0.00014513968
0.00011183581
8.7178769e-05
7.5106693e-05
4.3898812e-05
2.4131521e-05
1.735545e-05
1.4630767e-05
1.0869602e-05
6.5935619e-06
4.0067977e-06
2.3531452e-06
1.208765e-06
4.9339464e-07
1.7360883e-07
5.4387971e-08
1.5527615e-08
4.0629243e-09
9.6154533e-10
1.9917742e-10
3.4084286e-11
4.4103684e-12
4.4613132e-13
1.3861079e-13
1.4779554e-13
0.00052233064
0.00027929856
0.00020846032
0.00020214776
0.0001774753
0.00014493691
0.00011165426
8.6989137e-05
7.4992627e-05
4.3818949e-05
2.4081298e-05
1.7315359e-05
1.4592498e-05
1.0824981e-05
6.5656715e-06
3.9894488e-06
2.3421288e-06
1.2016139e-06
4.9010715e-07
1.7236409e-07
5.3982986e-08
1.5410152e-08
4.0320528e-09
9.5424272e-10
1.9766832e-10
3.3827048e-11
4.377585e-12
4.4330129e-13
1.3815815e-13
1.4736237e-13
0.00052481826
0.00028077612
0.00020843353
0.00020193135
0.00017726204
0.00014474528
0.00011148453
8.6808602e-05
7.487677e-05
4.3737466e-05
2.4030288e-05
1.7275175e-05
1.4553832e-05
1.0780258e-05
6.5377257e-06
3.9720593e-06
2.331112e-06
1.1945292e-06
4.8686431e-07
1.7114022e-07
5.3585523e-08
1.5294976e-08
4.0017917e-09
9.4708482e-10
1.9618897e-10
3.3574818e-11
4.3453969e-12
4.4047922e-13
1.376618e-13
1.468771e-13
0.00052731845
0.00028226409
0.00020839648
0.00020170878
0.00017705064
0.0001445585
0.00011131965
8.6631281e-05
7.4759736e-05
4.3654814e-05
2.3978708e-05
1.7234933e-05
1.4515283e-05
1.0735727e-05
6.5098297e-06
3.9546738e-06
2.3200859e-06
1.187427e-06
4.8361245e-07
1.6991244e-07
5.318668e-08
1.5179372e-08
3.9714129e-09
9.3989818e-10
1.9470357e-10
3.3321543e-11
4.313075e-12
4.3764601e-13
1.3716435e-13
1.4639105e-13
0.00052983037
0.00028376184
0.00020835704
0.00020148303
0.00017684036
0.00014437467
0.00011115777
8.6456037e-05
7.4641841e-05
4.3571308e-05
2.3926752e-05
1.7194695e-05
1.447675e-05
1.0691326e-05
6.4819813e-06
3.9373078e-06
2.3090738e-06
1.1803416e-06
4.8037052e-07
1.6868914e-07
5.2789441e-08
1.5064242e-08
3.9411573e-09
9.3274028e-10
1.9322397e-10
3.3069242e-11
4.2808705e-12
4.3481731e-13
1.3666199e-13
1.4589899e-13
0.00053235335
0.00028526888
0.0002083196
0.00020125613
0.00017663064
0.00014419239
0.00011099774
8.6282208e-05
7.4523301e-05
4.3487165e-05
2.3874548e-05
1.71545e-05
1.4438286e-05
1.0647083e-05
6.4542272e-06
3.919981e-06
2.29809e-06
1.1732787e-06
4.771413e-07
1.6747133e-07
5.2394088e-08
1.4949673e-08
3.9110499e-09
9.2561706e-10
1.9175144e-10
3.2818123e-11
4.2488127e-12
4.3199801e-13
1.3615786e-13
1.4540451e-13
0.00053488686
0.00028678484
0.00020828615
0.00020102859
0.00017642133
0.00014401125
0.00011083897
8.6109364e-05
7.4404263e-05
4.3402494e-05
2.3822187e-05
1.7114375e-05
1.4399917e-05
1.0603029e-05
6.4265666e-06
3.9027092e-06
2.2871431e-06
1.1662452e-06
4.7392854e-07
1.6626045e-07
5.2001078e-08
1.4835797e-08
3.8811258e-09
9.1853702e-10
1.9028781e-10
3.2568503e-11
4.2169421e-12
4.2919216e-13
1.3565306e-13
1.4490875e-13
0.00053743044
0.00028830945
0.00020825782
0.00020080056
0.00017621215
0.00014383085
0.00011068127
8.593729e-05
7.4284812e-05
4.3317379e-05
2.3769729e-05
1.7074343e-05
1.4361674e-05
1.0559167e-05
6.3990123e-06
3.8855031e-06
2.2762406e-06
1.1592475e-06
4.7073496e-07
1.6505752e-07
5.1610802e-08
1.4722728e-08
3.8514137e-09
9.1150708e-10
1.8883447e-10
3.2320634e-11
4.1852911e-12
4.2640299e-13
1.3514865e-13
1.4441292e-13
0.00053998365
0.00028984246
0.00020823526
0.00020057232
0.00017600314
0.00014365106
0.00011052449
8.576596e-05
7.4164996e-05
4.3231878e-05
2.371722e-05
1.7034411e-05
1.4323575e-05
1.0515498e-05
6.3715883e-06
3.8683648e-06
2.2653859e-06
1.1522877e-06
4.6756127e-07
1.6386287e-07
5.1223376e-08
1.4610498e-08
3.8219226e-09
9.0452922e-10
1.8739186e-10
3.2074587e-11
4.1538703e-12
4.2363161e-13
1.3464504e-13
1.4391738e-13
0.00054254605
0.00029138361
0.000208219
0.00020034399
0.00017579426
0.00014347187
0.00011036863
8.5595247e-05
7.4044841e-05
4.3146033e-05
2.3664698e-05
1.699459e-05
1.4285631e-05
1.0472044e-05
6.3442851e-06
3.8513023e-06
2.2545827e-06
1.1453671e-06
4.6440854e-07
1.6267695e-07
5.083891e-08
1.4499148e-08
3.7926645e-09
8.9760651e-10
1.8596057e-10
3.1830464e-11
4.1226929e-12
4.208797e-13
1.3414307e-13
1.4342305e-13
0.00054511723
0.00029293261
0.00020820935
0.00020011566
0.00017558557
0.00014329325
0.00011021362
8.5425116e-05
7.3924354e-05
4.3059876e-05
2.361219e-05
1.6954883e-05
1.4247843e-05
1.0428796e-05
6.317104e-06
3.8343191e-06
2.2438328e-06
1.1384878e-06
4.6127786e-07
1.6150005e-07
5.045748e-08
1.4388695e-08
3.7636438e-09
8.907397e-10
1.8454082e-10
3.1588286e-11
4.0917611e-12
4.1814746e-13
1.3364271e-13
1.4292992e-13
0.00054769676
0.00029448922
0.00020820636
0.00019988694
0.00017537694
0.00014311506
0.00011005932
8.5255526e-05
7.3803533e-05
4.2973439e-05
2.355972e-05
1.6915299e-05
1.4210222e-05
1.0385755e-05
6.2900635e-06
3.8174136e-06
2.2331378e-06
1.1316519e-06
4.5816957e-07
1.6033237e-07
5.0079202e-08
1.4279169e-08
3.7348671e-09
8.8393066e-10
1.8313295e-10
3.1348126e-11
4.0610834e-12
4.1543587e-13
1.3314427e-13
1.4243834e-13
0.00055028421
0.00029605321
0.00020821015
0.00019965804
0.00017516838
0.00014293742
0.00010990576
8.5086372e-05
7.3682368e-05
4.2886756e-05
2.3507302e-05
1.6875836e-05
1.4172772e-05
1.0342925e-05
6.2631491e-06
3.8005875e-06
2.2224977e-06
1.1248579e-06
4.5508329e-07
1.5917377e-07
4.9704032e-08
1.4170559e-08
3.7063325e-09
8.7717879e-10
1.8173689e-10
3.110998e-11
4.030661e-12
4.1274505e-13
1.3264796e-13
1.4194855e-13
0.00055287916
0.00029762434
0.00020822061
0.00019942897
0.00017495994
0.00014276017
0.00010975296
8.4917691e-05
7.3560841e-05
4.2799848e-05
2.3454951e-05
1.6836494e-05
1.4135489e-05
1.0300306e-05
6.2363598e-06
3.7838439e-06
2.2119128e-06
1.1181064e-06
4.5201966e-07
1.5802449e-07
4.933201e-08
1.4062885e-08
3.6780449e-09
8.704855e-10
1.803529e-10
3.0873889e-11
4.0004995e-12
4.1007567e-13
1.3215401e-13
1.4146077e-13
0.00055548121
0.00029920238
0.0002082378
0.00019919984
0.00017475158
0.00014258345
0.00010960089
8.4749442e-05
7.343893e-05
4.2712726e-05
2.3402683e-05
1.6797275e-05
1.4098371e-05
1.0257894e-05
6.2097094e-06
3.7671775e-06
2.2013817e-06
1.1113977e-06
4.489783e-07
1.5688429e-07
4.8963042e-08
1.3956111e-08
3.6499963e-09
8.638485e-10
1.7898048e-10
3.0639758e-11
3.9705863e-12
4.0742646e-13
1.3166212e-13
1.4097467e-13
0.00055808989
0.00030078708
0.00020826162
0.0001989703
0.0001745433
0.00014240713
0.00010944952
8.4581613e-05
7.3316603e-05
4.2625398e-05
2.3350514e-05
1.675818e-05
1.406143e-05
1.0215686e-05
6.1831866e-06
3.7505914e-06
2.190907e-06
1.104732e-06
4.4595917e-07
1.5575325e-07
4.8597204e-08
1.3850259e-08
3.6221906e-09
8.5726907e-10
1.7761996e-10
3.040764e-11
3.9409277e-12
4.0479843e-13
1.3117274e-13
1.4049077e-13
0.00056070473
0.0003023782
0.00020829228
0.00019874029
0.0001743349
0.0001422311
0.00010929869
8.4414213e-05
7.3193824e-05
4.2537884e-05
2.3298458e-05
1.6719206e-05
1.4024658e-05
1.0173689e-05
6.1567865e-06
3.7340867e-06
2.1804864e-06
1.098108e-06
4.4296204e-07
1.5463126e-07
4.8234457e-08
1.3745318e-08
3.5946257e-09
8.5074659e-10
1.7627119e-10
3.0177527e-11
3.9115224e-12
4.021912e-13
1.3068557e-13
1.4000874e-13
0.00056332529
0.00030397551
0.00020832956
0.0001985101
0.00017412649
0.00014205529
0.00010914843
8.4247132e-05
7.3070555e-05
4.2450202e-05
2.3246523e-05
1.6680353e-05
1.398805e-05
1.0131895e-05
6.1305238e-06
3.7176599e-06
2.1701198e-06
1.0915263e-06
4.3998728e-07
1.5351838e-07
4.787478e-08
1.364129e-08
3.5673013e-09
8.4428109e-10
1.749342e-10
2.994942e-11
3.8823723e-12
3.9960495e-13
1.3020075e-13
1.3952878e-13
0.00056595113
0.00030557878
0.00020837335
0.0001982796
0.00017391799
0.00014187978
0.00010899883
8.4080355e-05
7.2946763e-05
4.2362377e-05
2.319472e-05
1.6641619e-05
1.3951611e-05
1.0090299e-05
6.1043876e-06
3.7013118e-06
2.1598081e-06
1.084987e-06
4.3703417e-07
1.5241436e-07
4.7518073e-08
1.3538135e-08
3.5402088e-09
8.3787031e-10
1.7360842e-10
2.9723222e-11
3.8534642e-12
3.9703882e-13
1.2971845e-13
1.3905104e-13
0.00056858179
0.00030718778
0.0002084235
0.00019804869
0.00017370947
0.00014170451
0.00010884963
8.3913934e-05
7.2748025e-05
4.227463e-05
2.3143063e-05
1.6603005e-05
1.3915342e-05
1.0048909e-05
6.0783732e-06
3.6850456e-06
2.1495519e-06
1.0784899e-06
4.3410308e-07
1.5131937e-07
4.7164453e-08
1.343589e-08
3.5133564e-09
8.3151635e-10
1.722944e-10
2.9499013e-11
3.824809e-12
3.9449382e-13
1.2923886e-13
1.3857572e-13
0.00057121684
0.00030880226
0.00020848023
0.00019781703
0.00017350085
0.00014152959
0.00010870065
8.374788e-05
7.2528117e-05
4.2187143e-05
2.3091554e-05
1.6564507e-05
1.3879234e-05
1.0007717e-05
6.0524895e-06
3.668855e-06
2.1393479e-06
1.0720336e-06
4.3119341e-07
1.5023313e-07
4.681381e-08
1.3334519e-08
3.486735e-09
8.2521709e-10
1.7099166e-10
2.927672e-11
3.7963956e-12
3.9196857e-13
1.2876122e-13
1.3810201e-13
0.00057385588
0.00031042192
0.00020854384
0.000197585
0.00017329214
0.00014135483
0.00010855179
8.3582221e-05
7.2309239e-05
4.2099922e-05
2.3040192e-05
1.6526123e-05
1.3843286e-05
9.9667176e-06
6.0267316e-06
3.6527412e-06
2.1291976e-06
1.0656193e-06
4.2830556e-07
1.4915572e-07
4.6466132e-08
1.3234029e-08
3.4603455e-09
8.189727e-10
1.6970027e-10
2.9056363e-11
3.7682274e-12
3.8946379e-13
1.2828613e-13
1.376306e-13
0.00057649836
0.00031204644
0.00020861433
0.00019735273
0.00017308346
0.00014118041
0.00010840311
8.3416909e-05
7.209124e-05
4.2012962e-05
2.2988973e-05
1.6487849e-05
1.3807506e-05
9.9259146e-06
6.0010899e-06
3.636705e-06
2.1190999e-06
1.0592456e-06
4.2543861e-07
1.4808689e-07
4.612133e-08
1.3134387e-08
3.4341804e-09
8.1278141e-10
1.6841981e-10
2.883787e-11
3.7402965e-12
3.8697884e-13
1.2781362e-13
1.3716155e-13
0.0005791438
0.00031367556
0.0002086917
0.00019712018
0.00017287476
0.00014100627
0.00010825467
8.325196e-05
7.1874051e-05
4.1926255e-05
2.2937895e-05
1.6449686e-05
1.3771885e-05
9.8853055e-06
5.9755733e-06
3.6207435e-06
2.109054e-06
1.0529119e-06
4.2259264e-07
1.4702667e-07
4.5779473e-08
1.3035612e-08
3.4082459e-09
8.0664469e-10
1.671506e-10
2.8621294e-11
3.7126094e-12
3.845141e-13
1.2734354e-13
1.3669461e-13
0.00058179174
0.00031530902
0.00020877584
0.00019688706
0.00017266604
0.00014083241
0.00010810637
8.3087383e-05
7.1657692e-05
4.1839801e-05
2.288696e-05
1.6411631e-05
1.3736418e-05
9.844885e-06
5.9501798e-06
3.6048543e-06
2.0990578e-06
1.0466175e-06
4.1976711e-07
1.4597472e-07
4.5440428e-08
1.2937663e-08
3.3825287e-09
8.0055949e-10
1.6589205e-10
2.8406518e-11
3.6851507e-12
3.8206812e-13
1.2687549e-13
1.3622938e-13
0.0005844417
0.00031694653
0.00020886694
0.00019665334
0.00017245717
0.00014065879
0.00010795818
8.2923114e-05
7.1442199e-05
4.17536e-05
2.283617e-05
1.6373681e-05
1.3701108e-05
9.8046505e-06
5.9249008e-06
3.5890418e-06
2.0891147e-06
1.040364e-06
4.169627e-07
1.4493134e-07
4.5104255e-08
1.2840566e-08
3.3570364e-09
7.9452747e-10
1.6464448e-10
2.8193614e-11
3.6579288e-12
3.7964211e-13
1.2641009e-13
1.3576656e-13
0.00058709322
0.00031858784
0.00020896491
0.00019641944
0.00017224828
0.00014048536
0.00010781009
8.2759191e-05
7.1227589e-05
4.1667655e-05
2.2785524e-05
1.6335834e-05
1.3665955e-05
9.7646057e-06
5.89974e-06
3.5733028e-06
2.0792218e-06
1.0341492e-06
4.141783e-07
1.4389618e-07
4.4770833e-08
1.274428e-08
3.331758e-09
7.8854609e-10
1.6340738e-10
2.7982494e-11
3.6309332e-12
3.7723489e-13
1.2594696e-13
1.3530579e-13
0.00058974583
0.00032023266
0.00020906973
0.00019618526
0.00017203935
0.00014031223
0.00010766216
8.2595581e-05
7.1013751e-05
4.1581966e-05
2.2735019e-05
1.6298089e-05
1.3630952e-05
9.724746e-06
5.8747031e-06
3.5576348e-06
2.069378e-06
1.0279727e-06
4.1141394e-07
1.428692e-07
4.4440209e-08
1.2648817e-08
3.306699e-09
7.8261666e-10
1.6218097e-10
2.7773202e-11
3.6041702e-12
3.7484703e-13
1.2548621e-13
1.3484715e-13
0.00059239907
0.00032188071
0.00020918133
0.00019595059
0.00017183041
0.00014013936
0.0001075144
8.2432286e-05
7.080091e-05
4.1496546e-05
2.2684654e-05
1.6260442e-05
1.3596098e-05
9.6850625e-06
5.8497751e-06
3.5420389e-06
2.0595842e-06
1.0218351e-06
4.0866953e-07
1.4185021e-07
4.4112292e-08
1.255415e-08
3.2818491e-09
7.7673674e-10
1.6096479e-10
2.7565645e-11
3.5776282e-12
3.7247746e-13
1.2502766e-13
1.3439044e-13
0.00059505246
0.00032353173
0.00020929959
0.00019571513
0.00017162131
0.00013996668
0.00010736669
8.2269371e-05
7.0589001e-05
4.1411405e-05
2.2634429e-05
1.6222892e-05
1.3561392e-05
9.6455634e-06
5.8249596e-06
3.5265175e-06
2.0498415e-06
1.015737e-06
4.0594553e-07
1.4083954e-07
4.3787156e-08
1.2460303e-08
3.2572163e-09
7.7090823e-10
1.5975923e-10
2.7359888e-11
3.5513146e-12
3.7012714e-13
1.2457171e-13
1.3393608e-13
0.00059770555
0.00032518546
0.00020942461
0.00019547922
0.00017141212
0.00013979422
0.00010721905
8.2106749e-05
7.0377964e-05
4.1326545e-05
2.2584348e-05
1.6185434e-05
1.3526833e-05
9.6062426e-06
5.8002662e-06
3.5110632e-06
2.0401455e-06
1.0096751e-06
4.0324033e-07
1.3983657e-07
4.3464598e-08
1.2367219e-08
3.2327839e-09
7.6512711e-10
1.5856348e-10
2.7155801e-11
3.5252117e-12
3.6779433e-13
1.2411778e-13
1.3348349e-13
0.00060035787
0.00032684164
0.00020955675
0.00019524298
0.00017120291
0.00013962195
0.00010707151
8.1944448e-05
7.0167682e-05
4.1241966e-05
2.2534408e-05
1.6148067e-05
1.3492421e-05
9.567096e-06
5.775678e-06
3.4956777e-06
2.0304973e-06
1.0036504e-06
4.0055438e-07
1.3884143e-07
4.3144711e-08
1.2274921e-08
3.2085606e-09
7.5939559e-10
1.5737797e-10
2.6953467e-11
3.4993321e-12
3.654802e-13
1.2366626e-13
1.330331e-13
0.00060300895
0.00032850003
0.00020969615
0.00019500613
0.00017099363
0.00013944993
0.00010692409
8.1782439e-05
6.9958069e-05
4.1157669e-05
2.2484609e-05
1.6110789e-05
1.3458146e-05
9.5281205e-06
5.7511932e-06
3.4803625e-06
2.0208969e-06
9.9766352e-07
3.978878e-07
1.37854e-07
4.2827432e-08
1.2183389e-08
3.1845396e-09
7.5371192e-10
1.562023e-10
2.6752812e-11
3.473666e-12
3.6318376e-13
1.2321683e-13
1.3258456e-13
0.00060565833
0.00033016033
0.00020984298
0.00019476851
0.00017078431
0.00013927809
0.00010677673
8.1620724e-05
6.9749192e-05
4.1073657e-05
2.2434949e-05
1.6073595e-05
1.3424013e-05
9.4893196e-06
5.7268298e-06
3.4651145e-06
2.0113441e-06
9.9171341e-07
3.9524041e-07
1.3687445e-07
4.2512794e-08
1.2092635e-08
3.1607244e-09
7.4807715e-10
1.5503677e-10
2.6553877e-11
3.4482195e-12
3.6090572e-13
1.2276981e-13
1.3213818e-13
0.00060830555
0.00033182227
0.00020999721
0.00019453009
0.00017057479
0.00013910639
0.00010662933
8.1459275e-05
6.9541119e-05
4.0989938e-05
2.2385434e-05
1.6036482e-05
1.3390025e-05
9.4506918e-06
5.7025695e-06
3.4499318e-06
2.0018356e-06
9.8579773e-07
3.9261082e-07
1.3590217e-07
4.2200587e-08
1.20026e-08
3.1370985e-09
7.4248706e-10
1.5388046e-10
2.6356505e-11
3.4229711e-12
3.5864429e-13
1.2232494e-13
1.3169372e-13
0.00061095012
0.00033348558
0.0002101581
0.00019429141
0.00017036531
0.00013893492
0.00010648201
8.1298071e-05
6.9333779e-05
4.0906518e-05
2.2336067e-05
1.5999449e-05
1.3356174e-05
9.4122275e-06
5.6784105e-06
3.4348185e-06
1.9923748e-06
9.7991909e-07
3.9000013e-07
1.3493754e-07
4.1890977e-08
1.1913331e-08
3.1136751e-09
7.3694505e-10
1.5273413e-10
2.6160838e-11
3.3979381e-12
3.56401e-13
1.2188243e-13
1.3125141e-13
0.00061359161
0.00033515002
0.00021032392
0.00019405233
0.00017015582
0.00013876365
0.00010633476
8.1137177e-05
6.912716e-05
4.0823406e-05
2.2286851e-05
1.5962492e-05
1.332245e-05
9.3739307e-06
5.6543644e-06
3.41977e-06
1.9829597e-06
9.7407643e-07
3.8740797e-07
1.3398024e-07
4.1583842e-08
1.1824786e-08
3.0904439e-09
7.3144838e-10
1.5159711e-10
2.5966761e-11
3.3731075e-12
3.5417427e-13
1.2144166e-13
1.3081059e-13
0.00061622955
0.00033681532
0.00021049849
0.00019381245
0.00016994632
0.00013859259
0.00010618752
8.097655e-05
6.8921292e-05
4.0740622e-05
2.2237786e-05
1.5925606e-05
1.328887e-05
9.3358057e-06
5.6304246e-06
3.4047875e-06
1.9735901e-06
9.6826894e-07
3.8483414e-07
1.3303048e-07
4.127924e-08
1.1736987e-08
3.0674099e-09
7.2599865e-10
1.5046979e-10
2.5774343e-11
3.3484884e-12
3.5196548e-13
1.2100344e-13
1.3037216e-13
0.00061886358
0.00033848124
0.00021068648
0.00019357152
0.00016973671
0.00013842161
0.00010604025
8.0816181e-05
6.8716212e-05
4.0658177e-05
2.2188875e-05
1.5888785e-05
1.3255426e-05
9.2978412e-06
5.6065816e-06
3.3898698e-06
1.9642647e-06
9.6249531e-07
3.8227764e-07
1.3208778e-07
4.0976985e-08
1.1649881e-08
3.0445582e-09
7.2059197e-10
1.4935137e-10
2.5583427e-11
3.324061e-12
3.497728e-13
1.2056742e-13
1.2993572e-13
0.00062149319
0.00034014755
0.0002108824
0.0001933299
0.00016952702
0.00013825084
0.00010589294
8.0656067e-05
6.8511906e-05
4.0576081e-05
2.2140123e-05
1.5852026e-05
1.3222107e-05
9.2600392e-06
5.5828447e-06
3.3750171e-06
1.9549849e-06
9.5675782e-07
3.7973939e-07
1.3115241e-07
4.0677215e-08
1.1563509e-08
3.0219002e-09
7.1523124e-10
1.4824247e-10
2.5394132e-11
3.2998392e-12
3.4759736e-13
1.2013359e-13
1.2950122e-13
0.00062411791
0.00034181401
0.00021108625
0.00019308801
0.00016931744
0.00013808025
0.00010574571
8.0496215e-05
6.8308281e-05
4.049434e-05
2.2091537e-05
1.5815324e-05
1.3188915e-05
9.2223983e-06
5.5592127e-06
3.3602261e-06
1.9457482e-06
9.510541e-07
3.7721874e-07
1.3022399e-07
4.0379788e-08
1.1477822e-08
2.9994235e-09
7.0991335e-10
1.4714244e-10
2.5206349e-11
3.2758079e-12
3.4543766e-13
1.1970149e-13
1.2906822e-13
0.00062673732
0.00034348037
0.00021130548
0.00019284546
0.00016910783
0.00013790985
0.00010559841
8.0336636e-05
6.810536e-05
4.0412962e-05
2.2043124e-05
1.577867e-05
1.3155862e-05
9.184919e-06
5.5356767e-06
3.3454992e-06
1.9365556e-06
9.4538449e-07
3.7471581e-07
1.2930286e-07
4.0084813e-08
1.1392856e-08
2.9771383e-09
7.0464091e-10
1.4605175e-10
2.5020169e-11
3.2519814e-12
3.4329527e-13
1.1927182e-13
1.2863748e-13
0.00062935101
0.00034514646
0.00021153031
0.00019260195
0.00016889822
0.0001377395
0.00010545099
8.0177258e-05
6.7903153e-05
4.0331958e-05
2.199489e-05
1.5742057e-05
1.3122936e-05
9.147591e-06
5.5122371e-06
3.3308347e-06
1.9274058e-06
9.3974787e-07
3.7222956e-07
1.2838851e-07
3.9792087e-08
1.1308551e-08
2.9550271e-09
6.9940968e-10
1.4496957e-10
2.4835437e-11
3.2283391e-12
3.4116827e-13
1.1884408e-13
1.2820851e-13
0.00063195855
0.00034681206
0.00021176022
0.00019235726
0.00016868846
0.00013756925
0.00010530347
8.0018112e-05
6.7701658e-05
4.0251338e-05
2.1946845e-05
1.5705477e-05
1.309013e-05
9.1104191e-06
5.4889044e-06
3.3162303e-06
1.9182989e-06
9.3414552e-07
3.6976068e-07
1.2748112e-07
3.9501714e-08
1.1224945e-08
2.9331001e-09
6.9422215e-10
1.4389646e-10
2.4652241e-11
3.2048933e-12
3.3905778e-13
1.1841856e-13
1.2778152e-13
0.00063455954
0.00034847694
0.00021199673
0.0001921119
0.00016847878
0.00013739915
0.0001051559
7.9859194e-05
6.7500803e-05
4.0171114e-05
2.1899e-05
1.566892e-05
1.3057454e-05
9.0734049e-06
5.4656631e-06
3.3016858e-06
1.9092329e-06
9.2857528e-07
3.6730862e-07
1.2658037e-07
3.9213579e-08
1.1141992e-08
2.9113457e-09
6.8907547e-10
1.4283181e-10
2.4470483e-11
3.1816296e-12
3.3696249e-13
1.1799488e-13
1.2735615e-13
0.00063715365
0.0003501409
0.00021224031
0.000191866
0.00016826921
0.00013722917
0.00010500826
7.9700545e-05
6.7300617e-05
4.0091297e-05
2.1851374e-05
1.5632374e-05
1.3024912e-05
9.0365395e-06
5.4425142e-06
3.2872053e-06
1.9002107e-06
9.2303835e-07
3.6487373e-07
1.2568666e-07
3.8927808e-08
1.1059734e-08
2.8897759e-09
6.8397247e-10
1.417762e-10
2.4290274e-11
3.1585616e-12
3.3488378e-13
1.1757349e-13
1.2693289e-13
0.00063974051
0.00035180361
0.00021249158
0.00019161912
0.00016805975
0.00013705931
0.00010486042
7.9542135e-05
6.7101168e-05
4.0011908e-05
2.1803985e-05
1.5595824e-05
1.2992491e-05
8.9998238e-06
5.4194701e-06
3.2727818e-06
1.8912289e-06
9.1753329e-07
3.6245473e-07
1.2479939e-07
3.8644174e-08
1.0978101e-08
2.8683709e-09
6.7890852e-10
1.4072858e-10
2.4111431e-11
3.1356677e-12
3.3281948e-13
1.171538e-13
1.2651115e-13
0.00064231965
0.00035346487
0.00021275083
0.00019137108
0.0001678504
0.00013688951
0.00010471248
7.938395e-05
6.6902418e-05
3.9932961e-05
2.1756854e-05
1.5559253e-05
1.2960192e-05
8.9632605e-06
5.3965171e-06
3.2584176e-06
1.8822885e-06
9.120609e-07
3.6005245e-07
1.239188e-07
3.836279e-08
1.0897137e-08
2.8471424e-09
6.7388651e-10
1.3968967e-10
2.3934074e-11
3.1129638e-12
3.3077134e-13
1.1673644e-13
1.2609161e-13
0.00064489069
0.00035512445
0.00021301827
0.00019112196
0.00016764111
0.00013671988
0.0001045644
7.9226031e-05
6.670432e-05
3.9854463e-05
2.1710004e-05
1.5522645e-05
1.292802e-05
8.9268421e-06
5.3736504e-06
3.244113e-06
1.8733883e-06
9.0662001e-07
3.5766661e-07
1.2304469e-07
3.8083591e-08
1.0816813e-08
2.8260826e-09
6.6890447e-10
1.3865904e-10
2.3758115e-11
3.0904384e-12
3.2873811e-13
1.1632098e-13
1.2567374e-13
0.00064745328
0.00035678217
0.00021329395
0.00019087238
0.00016743208
0.00013655034
0.00010441618
7.9068374e-05
6.6506881e-05
3.9776421e-05
2.1663463e-05
1.5485972e-05
1.289597e-05
8.8905642e-06
5.3508831e-06
3.2298672e-06
1.8645303e-06
9.0121115e-07
3.5529718e-07
1.2217729e-07
3.7806639e-08
1.0737149e-08
2.8051977e-09
6.6396392e-10
1.3763702e-10
2.3583626e-11
3.0680994e-12
3.2672057e-13
1.1590758e-13
1.2525773e-13
0.00065000709
0.00035843782
0.00021357764
0.00019062219
0.00016722331
0.00013638092
0.0001042677
7.8910972e-05
6.6310131e-05
3.9698582e-05
2.161706e-05
1.5449324e-05
1.2864027e-05
8.8544288e-06
5.3282063e-06
3.2156766e-06
1.8557109e-06
8.9583317e-07
3.5294299e-07
1.2131606e-07
3.7531738e-08
1.0658083e-08
2.7844709e-09
6.5906055e-10
1.3662266e-10
2.3410446e-11
3.0459254e-12
3.2471695e-13
1.1549602e-13
1.2484339e-13
0.00065255177
0.00036009121
0.00021386949
0.00019037099
0.0001670149
0.00013621158
0.00010411901
7.8753813e-05
6.6114029e-05
3.9620845e-05
2.1570721e-05
1.5412732e-05
1.283219e-05
8.8184337e-06
5.3056142e-06
3.2015438e-06
1.8469313e-06
8.9048683e-07
3.5060517e-07
1.2046136e-07
3.7259028e-08
1.0579666e-08
2.763916e-09
6.5419822e-10
1.3561675e-10
2.3238715e-11
3.0239368e-12
3.2272905e-13
1.1508669e-13
1.2443114e-13
0.00065508703
0.00036174216
0.00021416961
0.00019011837
0.00016680672
0.00013604234
0.00010397012
7.8596952e-05
6.5918553e-05
3.9543208e-05
2.1524444e-05
1.5376199e-05
1.2800461e-05
8.7825672e-06
5.2831108e-06
3.1874686e-06
1.8381914e-06
8.8517088e-07
3.4828317e-07
1.1961288e-07
3.6988411e-08
1.0501865e-08
2.7435228e-09
6.4937409e-10
1.3461874e-10
2.3068329e-11
3.0021192e-12
3.2075521e-13
1.1467891e-13
1.2402025e-13
0.00065761257
0.00036339051
0.0002144782
0.0001898646
0.00016659887
0.00013587323
0.00010382092
7.8440384e-05
6.572373e-05
3.9465673e-05
2.1478227e-05
1.5339719e-05
1.2768834e-05
8.7468366e-06
5.2607016e-06
3.1734483e-06
1.8294914e-06
8.7988575e-07
3.4597679e-07
1.1877077e-07
3.6719929e-08
1.042469e-08
2.7232958e-09
6.4458952e-10
1.3362896e-10
2.2899334e-11
2.98048e-12
3.1879653e-13
1.1427332e-13
1.2361138e-13
0.00066012811
0.00036503608
0.0002147951
0.00018961026
0.0001663915
0.00013570415
0.00010367137
7.8284075e-05
6.5529554e-05
3.9388238e-05
2.1432067e-05
1.530329e-05
1.2737305e-05
8.7112407e-06
5.2383732e-06
3.1594818e-06
1.8208284e-06
8.7463061e-07
3.4368517e-07
1.1793462e-07
3.6453426e-08
1.0348092e-08
2.7032206e-09
6.3984077e-10
1.3264659e-10
2.2731603e-11
2.9590011e-12
3.1685156e-13
1.1386978e-13
1.2320442e-13
0.00066263339
0.00036667876
0.00021512014
0.00018935509
0.00016618471
0.00013553524
0.00010352149
7.8128048e-05
6.5335996e-05
3.9310907e-05
2.1385965e-05
1.526691e-05
1.2705872e-05
8.67577e-06
5.2161265e-06
3.1455731e-06
1.8122044e-06
8.6940611e-07
3.414095e-07
1.1710482e-07
3.6189051e-08
1.0272122e-08
2.6833123e-09
6.3513148e-10
1.3167238e-10
2.2565269e-11
2.9376985e-12
3.1492152e-13
1.1346826e-13
1.2279931e-13
0.00066512818
0.00036831837
0.00021545354
0.00018909861
0.00016597857
0.00013536642
0.00010337127
7.7972329e-05
6.5143051e-05
3.9233682e-05
2.1339922e-05
1.5230576e-05
1.267453e-05
8.6404206e-06
5.1939729e-06
3.1317168e-06
1.8036188e-06
8.6421074e-07
3.3914891e-07
1.1628094e-07
3.5926658e-08
1.0196735e-08
2.6635572e-09
6.3045862e-10
1.3070563e-10
2.2400213e-11
2.9165585e-12
3.1300473e-13
1.1306808e-13
1.2239532e-13
0.00066761225
0.00036995478
0.00021579518
0.00018884035
0.00016577304
0.00013519777
0.00010322055
7.7816924e-05
6.4950763e-05
3.9156569e-05
2.1293937e-05
1.5194287e-05
1.2643281e-05
8.6052006e-06
5.1718999e-06
3.1179146e-06
1.7950717e-06
8.5904544e-07
3.369034e-07
1.1546318e-07
3.5666318e-08
1.0121952e-08
2.6439617e-09
6.2582363e-10
1.2974674e-10
2.2236495e-11
2.8955897e-12
3.1110259e-13
1.1267012e-13
1.2199343e-13
0.0006700854
0.00037158789
0.00021614521
0.00018858101
0.00016556853
0.00013502937
0.00010306934
7.7661774e-05
6.4759104e-05
3.9079568e-05
2.124801e-05
1.5158038e-05
1.2612116e-05
8.5701029e-06
5.1499024e-06
3.1041656e-06
1.7865603e-06
8.5390929e-07
3.346723e-07
1.1465123e-07
3.5407904e-08
1.0047731e-08
2.6245145e-09
6.2122381e-10
1.2879516e-10
2.2074012e-11
2.8747789e-12
3.0921393e-13
1.1227415e-13
1.2159344e-13
0.00067254744
0.0003732175
0.00021650356
0.00018832078
0.00016536521
0.00013486132
0.00010291772
7.7506897e-05
6.4568028e-05
3.9002678e-05
2.1202138e-05
1.5121826e-05
1.2581032e-05
8.5351171e-06
5.1279931e-06
3.0904699e-06
1.7780867e-06
8.4880227e-07
3.3245638e-07
1.1384532e-07
3.5151514e-08
9.974104e-09
2.6052244e-09
6.1666111e-10
1.2785128e-10
2.1912843e-11
2.8541353e-12
3.0733932e-13
1.1188002e-13
1.2119507e-13
0.00067499822
0.00037484346
0.0002168703
0.00018806027
0.00016516268
0.00013469313
0.00010276587
7.7352324e-05
6.4377533e-05
3.8925899e-05
2.1156319e-05
1.508565e-05
1.2550027e-05
8.5002491e-06
5.1061633e-06
3.0768247e-06
1.7696498e-06
8.4372316e-07
3.3025488e-07
1.1304506e-07
3.4897011e-08
9.9010314e-09
2.5860811e-09
6.1213312e-10
1.2691454e-10
2.1752895e-11
2.833645e-12
3.0547745e-13
1.114874e-13
1.2079803e-13
0.00067743758
0.00037646567
0.00021724576
0.00018780059
0.00016495902
0.0001345242
0.0001026142
7.7198071e-05
6.4187654e-05
3.8849234e-05
2.1110558e-05
1.5049506e-05
1.2519097e-05
8.4654999e-06
5.0844091e-06
3.0632322e-06
1.76125e-06
8.3867381e-07
3.2806812e-07
1.1225076e-07
3.4644507e-08
9.8285486e-09
2.5670933e-09
6.0764217e-10
1.2598543e-10
2.1594257e-11
2.813322e-12
3.0363001e-13
1.1109703e-13
1.2040313e-13
0.00067986548
0.00037808404
0.00021763011
0.00018754092
0.00016475445
0.00013435473
0.00010246268
7.7044128e-05
6.3998357e-05
3.8772683e-05
2.1064853e-05
1.5013392e-05
1.2488232e-05
8.4308567e-06
5.0627339e-06
3.0496926e-06
1.7528849e-06
8.336524e-07
3.2589526e-07
1.1146205e-07
3.4393851e-08
9.7566059e-09
2.5482478e-09
6.0318489e-10
1.2506328e-10
2.1436802e-11
2.7931501e-12
3.0179521e-13
1.1070832e-13
1.2000975e-13
0.00068228182
0.00037969849
0.00021802365
0.00018728148
0.00016454934
0.0001341849
0.00010231127
7.689051e-05
6.3809598e-05
3.8696246e-05
2.1019206e-05
1.4977304e-05
1.245743e-05
8.3963185e-06
5.0411419e-06
3.0362032e-06
1.7445573e-06
8.2865917e-07
3.2373703e-07
1.1067915e-07
3.4145135e-08
9.6852292e-09
2.5295518e-09
5.9876318e-10
1.2414853e-10
2.12806e-11
2.7731386e-12
2.9997392e-13
1.1032144e-13
1.1961807e-13
0.00068468649
0.00038130893
0.00021842616
0.00018702262
0.00016434377
0.00013401483
0.00010215991
7.673723e-05
6.3621404e-05
3.8619922e-05
2.0973613e-05
1.4941239e-05
1.2426685e-05
8.3618892e-06
5.0196219e-06
3.0227638e-06
1.7362655e-06
8.2369351e-07
3.2159296e-07
1.0990178e-07
3.3898263e-08
9.6143936e-09
2.5109987e-09
5.9437497e-10
1.2324073e-10
2.1125577e-11
2.7532769e-12
2.9816534e-13
1.0993635e-13
1.1922802e-13
0.00068707943
0.00038291529
0.00021883767
0.00018676437
0.00016413795
0.0001338445
0.00010200855
7.6584232e-05
6.3433776e-05
3.8543713e-05
2.0928074e-05
1.4905194e-05
1.2395991e-05
8.3275636e-06
4.9981758e-06
3.0093774e-06
1.7280093e-06
8.1875717e-07
3.1946327e-07
1.0913019e-07
3.3653326e-08
9.5441277e-09
2.4925966e-09
5.9002272e-10
1.2234033e-10
2.0971824e-11
2.7335756e-12
2.9637053e-13
1.0955335e-13
1.1883992e-13
0.00068946065
0.00038451754
0.0002192582
0.00018650632
0.00016393172
0.00013367393
0.00010185727
7.6431536e-05
6.3246664e-05
3.8467619e-05
2.0882586e-05
1.4869166e-05
1.2365336e-05
8.2933302e-06
4.9768125e-06
2.9960392e-06
1.7197868e-06
8.1384726e-07
3.1734679e-07
1.0836388e-07
3.3410137e-08
9.4743728e-09
2.4743282e-09
5.8570205e-10
1.2144641e-10
2.0819182e-11