/*--------------------------------*- C++ -*----------------------------------*\
| =========                 |                                                 |
| \\      /  F ield         | OpenFOAM: The Open Source CFD Toolbox           |
|  \\    /   O peration     | Version:  v2012                                 |
|   \\  /    A nd           | Website:  www.openfoam.com                      |
|    \\/     M anipulation  |                                                 |
\*---------------------------------------------------------------------------*/
FoamFile
{
    version     2.0;
    format      ascii;
    class       volScalarField;
    location    "903";
    object      k;
}
// * * * * * * * * * * * * * * * * * * * * * * * * * * * * * * * * * * * * * //

dimensions      [0 2 -2 0 0 0 0];


internalField   nonuniform List<scalar> 
24000
(
0.15302823
0.20331422
0.38819037
0.86451852
1.5881278
2.3119403
2.7146954
2.6310389
2.2318335
1.7888862
1.900625
2.9616876
4.3822945
5.4330387
5.5880447
4.9452508
3.7832317
2.4892755
1.4197148
0.73305429
0.35468073
0.16334971
0.07160404
0.029528099
0.011198857
0.0037634494
0.0010639705
0.00027959748
0.00030704665
0.0021393162
0.15352901
0.20337493
0.3864222
0.85945689
1.5804581
2.3035497
2.7076158
2.6263007
2.2288899
1.7859371
1.8967231
2.9554732
4.3737134
5.4218234
5.5729438
4.928415
3.7672551
2.4766469
1.4115026
0.728464
0.3523601
0.16225637
0.071119625
0.02932749
0.011122677
0.0037377933
0.0010565465
0.00027711843
0.0003026386
0.0021072588
0.15404785
0.20344632
0.38474155
0.85476401
1.5735837
2.296392
2.7018009
2.6222704
2.2260564
1.7827362
1.8926944
2.9492926
4.364849
5.4092724
5.5558591
4.9090402
3.7484659
2.461074
1.4011663
0.72265237
0.34942367
0.16087503
0.070507951
0.029074111
0.011026465
0.003705559
0.001047698
0.00027555621
0.00030332732
0.0021138892
0.15456394
0.20352205
0.38308017
0.85011801
1.5667476
2.2892324
2.695877
2.6180484
2.2229932
1.7794729
1.8886776
2.9431408
4.3556938
5.3958901
5.5386496
4.8905224
3.7317361
2.4483794
1.3933485
0.71849796
0.3474046
0.15994894
0.070104249
0.028908406
0.010963837
0.0036845832
0.0010418359
0.00027419102
0.00030237405
0.0021076408
0.15507703
0.20359852
0.3814338
0.84549875
1.55993
2.2820873
2.6899392
2.6137925
2.2198693
1.776155
1.8846626
2.9370905
4.3466208
5.3821225
5.5213661
4.8718605
3.7146973
2.4351893
1.3850546
0.71400705
0.3451896
0.15892232
0.069653652
0.028722684
0.010893487
0.0036610068
0.0010352769
0.00027276142
0.00030172692
0.0021038243
0.15558708
0.20367628
0.37980335
0.84090367
1.55313
2.2749513
2.68399
2.6095114
2.2166934
1.7728033
1.8806554
2.9311297
4.3376655
5.3684635
5.5041628
4.8532706
3.6977486
2.4221162
1.3768637
0.70958511
0.34301341
0.15791516
0.06921199
0.02854073
0.010824575
0.0036379087
0.0010288418
0.00027133295
0.00030098236
0.0020992511
0.15609401
0.20375491
0.3781886
0.83633063
1.5463465
2.2678238
2.6780357
2.6052177
2.2134854
1.7694287
1.8766575
2.9252462
4.3288181
5.3549047
5.4870234
4.8347058
3.6807947
2.4090209
1.3686498
0.7051464
0.34082712
0.1569027
0.068767817
0.028357692
0.010755242
0.0036146673
0.0010223665
0.00026989606
0.00030023554
0.0020946687
0.15659769
0.20383408
0.37658925
0.83177846
1.5395788
2.2607035
2.6720779
2.6009162
2.2102516
1.7660369
1.8726679
2.9194232
4.3200549
5.3414258
5.4699403
4.816183
3.6638739
2.3959548
1.3604572
0.70071994
0.33864691
0.155893
0.068324823
0.028175128
0.010686084
0.0035914827
0.0010159056
0.00026845909
0.0002994766
0.002089993
0.15709799
0.20391345
0.37500485
0.82724636
1.5328262
2.2535894
2.6661175
2.5966101
2.2069967
1.7626324
1.8686861
2.9136477
4.3113581
5.3280102
5.4529105
4.7977057
3.6469956
2.3829276
1.352292
0.6963091
0.33647443
0.15488683
0.067883342
0.027993174
0.010617152
0.0035683731
0.0010094647
0.00026702467
0.00029871208
0.0020852724
0.15759473
0.20399274
0.37343497
0.82273378
1.5260884
2.2464806
2.6601544
2.5923011
2.2037247
1.7592155
1.8647112
2.9079101
4.3027135
5.3146463
5.4359296
4.7792787
3.6301697
2.3699494
1.3441623
0.69191865
0.33431217
0.15388537
0.067443916
0.02781206
0.010548536
0.0035453681
0.0010030524
0.00026559493
0.00029794406
0.002080521
0.15808774
0.20407166
0.37187918
0.81824023
1.5193649
2.2393764
2.654189
2.5879902
2.2004372
1.7557873
1.8607429
2.902204
4.2941112
5.3013256
5.4189919
4.7609054
3.6134035
2.3570291
1.3360747
0.68755264
0.33216219
0.15288962
0.067006982
0.027631966
0.010480304
0.003522491
0.00099667494
0.00026417159
0.00029717454
0.0020757526
0.15857687
0.20414999
0.3703371
0.8137654
1.5126555
2.2322762
2.6482211
2.5836782
2.1971351
1.7523488
1.8567805
2.8965244
4.2855454
5.2880417
5.4020983
4.742587
3.5967006
2.3441706
1.3280318
0.68321238
0.33002517
0.15189988
0.066572674
0.02745295
0.010412479
0.0034997493
0.00099033471
0.00026275527
0.00029640407
0.0020709712
0.15906192
0.20422749
0.36880831
0.80930883
1.5059596
2.2251796
2.6422503
2.579366
2.1938185
1.7489005
1.852824
2.8908676
4.2770109
5.2747905
5.385247
4.7243245
3.5800635
2.3313762
1.3200354
0.67889917
0.32790189
0.15091655
0.066141176
0.027275088
0.01034509
0.0034771536
0.00098403474
0.00026134701
0.0002956345
0.0020661901
0.15954275
0.20430391
0.36729241
0.8048703
1.4992771
2.218086
2.6362771
2.5750539
2.1904871
1.7454427
1.8488734
2.8852312
4.2685035
5.2615692
5.368434
4.7061193
3.5634948
2.3186486
1.3120876
0.67461408
0.32579279
0.14993983
0.065712574
0.027098415
0.010278148
0.0034547071
0.00097777593
0.00025994694
0.00029486583
0.0020614095
0.16001918
0.20437903
0.36578907
0.80044948
1.4926078
2.2109953
2.6303013
2.5707424
2.1871403
1.7419757
1.8449287
2.8796136
4.2600209
5.2483751
5.3516613
4.687972
3.5469963
2.3059903
1.3041902
0.67035819
0.32369844
0.14896998
0.065286986
0.026922979
0.010211673
0.0034324161
0.00097156003
0.00025855554
0.00029409869
0.0020566336
0.16049105
0.20445264
0.36429795
0.79604618
1.4859514
2.2039071
2.6243227
2.5664314
2.1837771
1.7385
1.8409899
2.874013
4.251562
5.2352066
5.3349283
4.669882
3.5305676
2.2934007
1.2963423
0.66613102
0.32161862
0.14800692
0.064864377
0.026748771
0.010145662
0.0034102804
0.000965387
0.00025717291
0.00029333344
0.0020518646
0.1609582
0.20452454
0.36281873
0.79166013
1.4793077
2.1968214
2.6183415
2.5621212
2.1803967
1.735016
1.8370569
2.8684284
4.2431247
5.2220627
5.3182312
4.6518499
3.5142096
2.2808804
1.288545
0.66193322
0.31955374
0.14705084
0.064444842
0.026575829
0.010080131
0.0033883053
0.0009592585
0.0002557995
0.00029257042
0.0020471055
0.16142047
0.20459452
0.36135106
0.78729115
1.4726765
2.1897378
2.6123577
2.5578122
2.1769978
1.7315238
1.8331301
2.8628588
4.2347072
5.208942
5.3015721
4.6338748
3.4979213
2.2684289
1.2807974
0.65776408
0.31750331
0.1461015
0.064028256
0.026404097
0.010015056
0.0033664827
0.00095317206
0.00025443468
0.00029180913
0.0020423528
0.16187772
0.20466241
0.35989465
0.78293909
1.4660576
2.1826563
2.6063714
2.5535047
2.1735789
1.7280233
1.8292094
2.8573034
4.226309
5.195843
5.2849506
4.6159565
3.4817035
2.256047
1.2731002
0.65362418
0.31546768
0.14515908
0.063614713
0.026233618
0.0099504549
0.0033448181
0.00094712943
0.00025307904
0.00029105067
0.0020376143
0.16232978
0.20472801
0.35844923
0.77860374
1.459451
2.1755768
2.6003827
2.5491987
2.1701385
1.7245149
1.8252952
2.8517613
4.2179297
5.1827657
5.2683636
4.5980955
3.4655562
2.2437341
1.2654528
0.64951316
0.31344667
0.14422349
0.063204176
0.026064378
0.0098863223
0.0033233103
0.0009411302
0.00025173231
0.00029029437
0.0020328849
0.16277651
0.20479115
0.35701451
0.77428503
1.4528564
2.1684992
2.5943916
2.5448943
2.1666752
1.7209988
1.8213874
2.8462318
4.2095671
5.1697092
5.2518125
4.5802908
3.4494784
2.23149
1.2578554
0.64543107
0.31144036
0.14329478
0.06279666
0.025896383
0.0098226616
0.0033019606
0.00093517471
0.00025039467
0.00028954042
0.0020281661
0.16321776
0.20485168
0.35559019
0.76998276
1.4462736
2.1614233
2.5883982
2.5405916
2.1631877
1.7174753
1.8174863
2.8407143
4.2012208
5.1566717
5.2352975
4.5625419
3.4334701
2.2193141
1.2503071
0.64137714
0.30944821
0.14237265
0.062392026
0.025729571
0.0097594469
0.0032807598
0.00092926044
0.00024906569
0.00028878918
0.0020234612
0.16365339
0.20490943
0.354176
0.76569685
1.4397027
2.1543491
2.5824026
2.5362884
2.1596891
1.713951
1.8135919
2.8352083
4.1928908
5.1436534
5.218816
4.5448498
3.4175324
2.2072078
1.2428089
0.6373523
0.3074708
0.14145743
0.061990435
0.025564013
0.0096967066
0.003259718
0.00092339028
0.00024774606
0.00028804115
0.0020187734
0.16408326
0.20496426
0.35277169
0.76142713
1.4331434
2.1472764
2.576405
2.5319826
2.1561906
1.7104311
1.8097043
2.8297134
4.1845767
5.130655
5.2023691
4.5272133
3.4016634
2.1951686
1.2353592
0.63335552
0.30550758
0.14054883
0.061591754
0.025399653
0.0096344192
0.0032388275
0.000917562
0.00024643496
0.00028729482
0.002014092
0.16450725
0.20501599
0.351377
0.75717349
1.4265956
2.1402051
2.5704053
2.5276741
2.1526922
1.7069159
1.8058235
2.8242293
4.1762772
5.1176745
5.1859573
4.5096316
3.3858629
2.1831971
1.2279582
0.62938688
0.30355863
0.1396469
0.061196004
0.025236501
0.0095725893
0.00321809
0.00091177613
0.00024513279
0.00028655149
0.0020094261
0.16492522
0.20506444
0.34999166
0.7529358
1.4200592
2.1331352
2.5644035
2.5233626
2.1491939
1.7034052
1.801949
2.8187557
4.1679925
5.1047118
5.169578
4.4921047
3.3701305
2.1712924
1.2206051
0.62544565
0.30162347
0.1387514
0.060803075
0.025074511
0.009511199
0.0031974996
0.00090603103
0.00024383926
0.00028581116
0.0020047761
0.16533704
0.20510943
0.3486154
0.74871394
1.4135341
2.1260664
2.5583997
2.5190484
2.1456956
1.6998986
1.7980805
2.8132919
4.1597226
5.0917671
5.1532312
4.474632
3.3544657
2.159454
1.2132999
0.62153224
0.29970244
0.13786252
0.060413069
0.024913727
0.009450266
0.0031770628
0.00090032855
0.00024255468
0.00028507339
0.0020001387
0.16574258
0.20515083
0.34724798
0.74450784
1.4070202
2.1189987
2.552394
2.5147316
2.1421972
1.6963961
1.794218
2.8078376
4.1514663
5.0788398
5.1369183
4.4572123
3.3388665
2.14768
1.206041
0.61764546
0.29779483
0.13697991
0.060025812
0.024754074
0.0093897602
0.0031567688
0.00089466566
0.00024127825
0.0002843375
0.0019955092
0.16614172
0.20518848
0.34588919
0.74031738
1.4005174
2.1119321
2.5463863
2.510412
2.1386986
1.6928975
1.7903611
2.8023923
4.1432227
5.0659281
5.1206367
4.439846
3.3233346
2.1359724
1.1988297
0.61378611
0.29590113
0.1361038
0.059641418
0.024595602
0.0093297019
0.0031366247
0.00088904441
0.00024001069
0.00028360496
0.0019908984
0.16653434
0.20522226
0.3445388
0.73614251
1.3940257
2.1048664
2.5403768
2.5060895
2.1351996
1.6894026
1.7865099
2.7969559
4.1349924
5.0530329
5.1043858
4.4225326
3.3078688
2.1243292
1.1916645
0.60995316
0.29402071
0.13523387
0.059259738
0.024438248
0.0092700663
0.0031166218
0.00088346223
0.00023875131
0.000282875
0.0019863006
0.16692034
0.20525202
0.34319654
0.73198311
1.387545
2.0978015
2.5343652
2.501764
2.1317002
1.6859113
1.7826639
2.7915276
4.1267748
5.0401542
5.0881677
4.4052711
3.2924676
2.1127495
1.1845451
0.60614673
0.29215374
0.13437026
0.058880841
0.024282043
0.0092108671
0.0030967654
0.00087792074
0.00023750049
0.00028214761
0.0019817155
0.16729961
0.20527766
0.34186222
0.72783914
1.3810752
2.0907374
2.528352
2.4974357
2.1282003
1.6824237
1.7788231
2.7861075
4.1185693
5.0272907
5.0719808
4.3880614
3.277131
2.1012331
1.1774707
0.60236615
0.29029978
0.1335127
0.058504603
0.024126932
0.0091520813
0.0030770475
0.00087241763
0.00023625769
0.00028142248
0.0019771414
0.16767205
0.20529904
0.34053564
0.72371052
1.3746163
2.083674
2.5223369
2.4931047
2.1246998
1.6789397
1.7749872
2.7806954
4.1103758
5.0144423
5.0558228
4.3709039
3.2618604
2.0897814
1.1704428
0.59861227
0.28845935
0.13266148
0.058131156
0.023972972
0.0090937311
0.0030574756
0.00086695512
0.00023502356
0.00028070057
0.0019725853
0.16803755
0.20531607
0.33921663
0.71959718
1.3681682
2.0766112
2.5163201
2.4887707
2.1211987
1.6754594
1.7711561
2.775291
4.1021949
5.0016101
5.0396967
4.3537968
3.2466521
2.0783904
1.1634581
0.59488316
0.28663137
0.13181606
0.05776025
0.023820058
0.0090357765
0.0030380357
0.00086152921
0.00023379704
0.00027998086
0.0019680397
0.16839602
0.20532865
0.33790494
0.71549906
1.3617309
2.0695489
2.5103016
2.4844336
2.1176969
1.6719827
1.7673298
2.7698939
4.0940259
4.9887929
5.0236015
4.3367396
3.2315062
2.0670605
1.1565174
0.59117947
0.28481629
0.13097668
0.057392017
0.023668251
0.0089782424
0.003018737
0.00085614248
0.00023257883
0.00027926404
0.0019635096
0.16874738
0.2053367
0.33660037
0.71141608
1.3553043
2.0624869
2.5042814
2.4800936
2.1141944
1.6685092
1.7635079
2.764504
4.0858684
4.9759901
5.0075339
4.3197329
3.2164237
2.0557925
1.1496206
0.58750082
0.2830138
0.13014318
0.057026361
0.023517503
0.0089211095
0.0029995728
0.00085079303
0.00023136838
0.00027854933
0.0019589892
0.16909154
0.20534009
0.33530276
0.70734825
1.3488885
2.0554253
2.4982597
2.4757508
2.110691
1.665039
1.7596902
2.7591207
4.0777217
4.9632015
4.9914964
4.3027759
3.2014037
2.0445859
1.1427677
0.5838475
0.28122415
0.1293157
0.056663363
0.023367855
0.0088643939
0.0029805488
0.00084548259
0.00023016623
0.00027783743
0.0019544837
0.16942843
0.20533873
0.33401194
0.70329548
1.3424833
2.0483639
2.4922365
2.471405
2.1071866
1.6615718
1.7558765
2.7537435
4.0695863
4.9504273
4.9754889
4.2858667
3.1864431
2.033437
1.1359559
0.58021763
0.27944628
0.12849369
0.056302762
0.023219191
0.0088080499
0.0029616491
0.00084020667
0.00022897139
0.00027712796
0.0019499912
0.16975798
0.20533253
0.33272773
0.69925772
1.3360887
2.0413026
2.4862117
2.467056
2.103681
1.6581075
1.7520666
2.7483722
4.0614616
4.9376664
4.9595082
4.2690068
3.1715444
2.0223487
1.1291875
0.57661275
0.27768107
0.12767762
0.055944785
0.023071615
0.0087521187
0.0029428876
0.00083496922
0.0002277847
0.00027642144
0.0019455148
0.17008011
0.2053214
0.33144995
0.69523493
1.3297048
2.0342413
2.4801855
2.4627039
2.1001744
1.6546462
1.7482605
2.7430066
4.0533471
4.9249189
4.9435562
4.2521958
3.1567071
2.0113201
1.1224611
0.57303181
0.27592787
0.12686715
0.05558926
0.022925046
0.0086965691
0.002924254
0.00082976704
0.00022660524
0.00027571655
0.0019410449
0.17039477
0.20530528
0.33017841
0.69122708
1.3233315
2.0271799
2.4741577
2.4583489
2.0966664
1.6511877
1.7444578
2.7376463
4.0452428
4.912185
4.9276336
4.2354325
3.1419298
2.0003503
1.1157768
0.56947513
0.27418698
0.12606245
0.055236288
0.022779534
0.0086414216
0.0029057555
0.00082460254
0.00022543391
0.00027501488
0.001936593
0.1707019
0.20528409
0.32891302
0.68723414
1.316969
2.0201183
2.4681286
2.4539908
2.0931571
1.6477322
1.7406584
2.732291
4.0371497
4.8994646
4.911738
4.2187164
3.127211
1.9894371
1.1091327
0.56594129
0.27245754
0.12526307
0.054885644
0.022634978
0.0085866342
0.0028873775
0.00081947149
0.0002242697
0.0002743157
0.0019321546
0.17100147
0.20525776
0.32765368
0.6832561
1.3106169
2.0130563
2.4620981
2.4496294
2.0896464
1.6442797
1.736862
2.7269403
4.0290666
4.8867572
4.8958699
4.2020487
3.112553
1.9785829
1.1025305
0.56243153
0.27074028
0.1244694
0.054537521
0.022491465
0.008532243
0.0028691326
0.00081437749
0.00022311333
0.00027361908
0.0019277297
0.17129341
0.20522625
0.32640025
0.67929297
1.3042756
2.0059939
2.4560663
2.4452649
2.0861342
1.6408298
1.7330684
2.721594
4.0209934
4.8740632
4.8800306
4.1854278
3.0979536
1.9677857
1.0959682
0.55894449
0.26903442
0.12368103
0.054191726
0.022348912
0.0084782145
0.0028510088
0.00080931701
0.00022196386
0.00027292418
0.0019233124
0.17157769
0.20518951
0.32515258
0.67534473
1.2979449
1.9989309
2.4500332
2.4408973
2.0826206
1.6373825
1.7292773
2.7162518
4.0129307
4.8613821
4.8642182
4.1688531
3.0834123
1.9570455
1.089447
0.55548101
0.26734051
0.12289828
0.053848414
0.022207386
0.0084245775
0.0028330166
0.00080429313
0.00022082226
0.0002722325
0.0019189133
0.17185427
0.2051475
0.32391063
0.67141147
1.2916249
1.9918673
2.4439989
2.4365267
2.0791054
1.6339375
1.7254884
2.7109136
4.0048788
4.8487141
4.8484315
4.1523246
3.0689283
1.9463603
1.0829644
0.55203953
0.26565761
0.12212065
0.053507342
0.022066779
0.008371288
0.0028151407
0.00079930149
0.00021968744
0.00027154289
0.0019145246
0.17212313
0.20510021
0.32267433
0.66749315
1.2853157
1.984803
2.4379635
2.4321527
2.0755887
1.6304947
1.7217012
2.7055789
3.9968367
4.8360583
4.8326727
4.1358424
3.0545025
1.9357316
1.0765217
0.5486209
0.26398627
0.12134842
0.05316866
0.021927163
0.0083183742
0.0027973913
0.00079434512
0.00021856013
0.00027085581
0.0019101492
0.17238424
0.20504764
0.32144356
0.66358975
1.2790172
1.9777378
2.4319267
2.4277755
2.0720704
1.6270539
1.7179152
2.700248
3.9888045
4.8234151
4.8169406
4.1194047
3.0401327
1.9251574
1.0701175
0.54522406
0.26232585
0.12058129
0.052832213
0.021788467
0.0082658085
0.0027797584
0.00078942111
0.0002174396
0.00027017066
0.0019057833
0.1726376
0.20498977
0.3202182
0.65970126
1.2727296
1.9706716
2.4258887
2.4233951
2.0685505
1.6236148
1.71413
2.694921
3.9807827
4.8107836
4.8012323
4.1030123
3.02582
1.914639
1.0637531
0.54185012
0.26067705
0.11981961
0.052498179
0.021650771
0.0082136232
0.0027622531
0.00078453259
0.00021632666
0.00026948852
0.0019014345
0.1728832
0.20492657
0.31899814
0.65582769
1.2664528
1.9636042
2.4198494
2.4190115
2.0650291
1.6201775
1.7103448
2.6895986
3.9727716
4.7981642
4.7855509
4.0866647
3.0115627
1.9041735
1.0574256
0.53849708
0.25903868
0.11906277
0.052166256
0.021513941
0.0081617653
0.0027448572
0.00077967433
0.00021522001
0.0002688082
0.0018970945
0.17312104
0.204858
0.31778333
0.65196907
1.260187
1.9565354
2.4138089
2.4146245
2.0615063
1.6167418
1.7065587
2.6842818
3.9647702
4.7855563
4.769896
4.0703611
2.9973613
1.8937623
1.0511365
0.535166
0.25741142
0.11831114
0.051836642
0.021378068
0.0081102717
0.002727584
0.00077485029
0.00021412075
0.00026813088
0.0018927713
0.17335111
0.20478406
0.31657374
0.64812542
1.2539321
1.9494652
2.407767
2.4102341
2.0579822
1.6133076
1.7027704
2.678973
3.9567788
4.7729597
4.7542644
4.0541013
2.9832149
1.8834048
1.0448851
0.53185632
0.2557949
0.11756451
0.051509223
0.021243098
0.0080591195
0.0027104254
0.00077005808
0.0002130282
0.00026745547
0.0018884575
0.17357342
0.20470476
0.31536928
0.64429676
1.2476884
1.9423933
2.4017237
2.4058405
2.0544569
1.6098748
1.6989781
2.6736751
3.948797
4.7603735
4.7386575
4.0378856
2.9691239
1.8731009
1.0386719
0.52856855
0.25418948
0.1168231
0.051184112
0.021109087
0.0080083313
0.0026933891
0.00076529994
0.00021194287
0.00026678253
0.0018841569
0.17378799
0.20462011
0.31416988
0.64048313
1.2414558
1.9353197
2.3956791
2.4014436
2.0509306
1.6064436
1.6951858
2.6683825
3.9408228
4.7477975
4.723076
4.0217124
2.9550865
1.8628481
1.0324943
0.52530083
0.25259405
0.11608631
0.050861024
0.020975906
0.0079578574
0.0026764576
0.00076057089
0.00021086372
0.0002661118
0.0018798683
0.17399483
0.20453014
0.31297549
0.63668456
1.2352345
1.9282442
2.389633
2.3970431
2.0474035
1.6030141
1.6913951
2.6630927
3.9328547
4.7352309
4.7075171
4.0055816
2.9411034
1.8526487
1.0263543
0.52205464
0.25100952
0.11535466
0.050540205
0.020843664
0.0079077414
0.0026596465
0.00075587535
0.00020979177
0.00026544406
0.0018755968
0.17419397
0.20443487
0.31178612
0.63290113
1.2290248
1.9211667
2.3835853
2.3926392
2.0438756
1.5995864
1.6876061
2.6578054
3.9248928
4.7226732
4.6919808
3.9894936
2.927174
1.8425012
1.0202507
0.5188291
0.24943535
0.11462781
0.050221499
0.020712293
0.0078579547
0.0026429458
0.00075121035
0.0002087261
0.00026477773
0.001871331
0.17438545
0.20433433
0.31060177
0.62913285
1.2228265
1.914087
2.3775358
2.388232
2.040347
1.5961604
1.6838183
2.6525199
3.9169366
4.7101237
4.6764684
3.9734477
2.9132982
1.8324053
1.0141837
0.51562445
0.24787174
0.11390593
0.049904988
0.020581832
0.0078085135
0.0026263614
0.00074657783
0.00020766744
0.00026411407
0.00186708
0.1745693
0.20422856
0.3094224
0.62537981
1.21664
1.9070051
2.3714844
2.3838214
2.0368179
1.5927363
1.6800316
2.6472356
3.9089854
4.6975825
4.6609783
3.9574421
2.899474
1.822359
1.0081512
0.51243923
0.24631783
0.11318854
0.049590449
0.020452182
0.0077593791
0.0026098798
0.00074197391
0.00020661498
0.00026345297
0.0018628438
0.17474558
0.20411764
0.30824797
0.62164208
1.2104654
1.8999207
2.3654309
2.3794071
2.0332884
1.5893139
1.6762459
2.6419522
3.9010381
4.6850484
4.6455083
3.9414782
2.885703
1.8123649
1.0021554
0.50927503
0.24477454
0.11247615
0.049278111
0.020323444
0.0077105917
0.0025935145
0.00073740239
0.00020556943
0.00026279449
0.0018586221
0.17491432
0.2040016
0.30707848
0.61791973
1.2043029
1.8928339
2.359375
2.3749894
2.0297585
1.5858934
1.6724611
2.6366691
3.8930946
4.6725209
4.630061
3.9255554
2.8719839
1.8024207
0.99619447
0.50613053
0.24324112
0.11176834
0.048967788
0.020195534
0.0076621176
0.002577254
0.0007328598
0.00020452974
0.00026213713
0.0018544043
0.17507558
0.20388051
0.30591397
0.61421285
1.1981527
1.8857444
2.3533165
2.3705683
2.0262284
1.5824749
1.668677
2.6313858
3.8851543
4.6599995
4.6146354
3.9096725
2.8583168
1.7925265
0.99026887
0.50300616
0.24171787
0.1110653
0.048659573
0.020068498
0.0076139762
0.0025611054
0.00072834839
0.00020349683
0.00026148281
0.0018502043
0.17522943
0.20375443
0.30475448
0.61052147
1.1920151
1.8786523
2.347255
2.3661438
2.0226981
1.5790586
1.6648936
2.626102
3.8772167
4.6474845
4.5992285
3.8938289
2.8447
1.782681
0.98437708
0.49990085
0.24020415
0.1103667
0.048353306
0.019942264
0.0075661379
0.0025450587
0.00072386532
0.00020247007
0.00026083092
0.0018460179
0.17537594
0.20362343
0.30359997
0.60684566
1.1858904
1.8715575
2.3411903
2.3617157
2.0191678
1.5756443
1.6611106
2.6208169
3.8692804
4.6349742
4.5838421
3.8780255
2.8311345
1.7728855
0.97852032
0.49681552
0.2387005
0.10967281
0.048049125
0.019816895
0.0075186281
0.0025291223
0.00071941306
0.00020144982
0.00026018104
0.0018418416
0.17551517
0.20348757
0.30245043
0.60318545
1.1797788
1.86446
2.335122
2.3572843
2.0156375
1.5722322
1.6573278
2.6155298
3.8613446
4.6224678
4.5684764
3.8622611
2.8176192
1.7631379
0.972697
0.49374905
0.2372063
0.10898332
0.047746868
0.019692317
0.0074714178
0.0025132859
0.00071498846
0.00020043532
0.00025953276
0.0018376731
0.17564721
0.20334689
0.30130588
0.59954094
1.1736773
1.8573654
2.3290498
2.3528496
2.0121075
1.5688222
1.6535451
2.6102397
3.8534083
4.6099651
4.5531285
3.8465351
2.8041547
1.7534396
0.9669084
0.49070237
0.23572209
0.10829852
0.04744669
0.019568601
0.0074245357
0.0024975598
0.00071059461
0.00019942754
0.00025888774
0.0018335242
0.17577214
0.20320148
0.30016638
0.59591232
1.1675863
1.8502728
2.3229734
2.3484114
2.0085778
1.5654145
1.6497623
2.604946
3.8454698
4.597465
4.5377985
3.8308476
2.7907394
1.7437888
0.9611526
0.4876741
0.23424709
0.107618
0.047148384
0.019445654
0.007377945
0.0024819314
0.0007062278
0.00019842547
0.00025824468
0.0018293857
0.17589005
0.20305143
0.299032
0.5922997
1.1615061
1.8431818
2.3168931
2.3439697
2.0050484
1.5620089
1.6459794
2.5996479
3.8375277
4.5849658
4.5224876
3.8151991
2.7773743
1.7341866
0.95543067
0.48466508
0.23278176
0.10694201
0.046852082
0.019323538
0.007331669
0.0024664088
0.00070189047
0.00019742969
0.00025760377
0.0018252586
0.17600104
0.2028968
0.29790272
0.58870329
1.1554367
1.8360924
2.3108085
2.3395249
2.0015196
1.5586056
1.6421962
2.5943446
3.829581
4.5724676
4.5071944
3.7995883
2.764059
1.7246317
0.9497417
0.48167463
0.23132571
0.10627032
0.046557666
0.019202198
0.0072856864
0.0024509845
0.00069758047
0.00019643974
0.00025696487
0.0018211421
0.1761052
0.20273771
0.29677857
0.58512319
1.1493782
1.8290046
2.3047195
2.3350767
1.9979914
1.5552045
1.6384124
2.5890351
3.8216278
4.5599695
4.4919167
3.7840154
2.7507937
1.7151254
0.94408679
0.47870355
0.22987945
0.10560324
0.046265285
0.0190817
0.0072400244
0.0024356677
0.00069330047
0.00019545632
0.00025632885
0.0018170426
0.17620264
0.20257424
0.2956596
0.58155965
1.1433308
1.8219182
2.2986261
2.330625
1.9944638
1.5518056
1.6346281
2.5837189
3.8136661
4.5474703
4.4766567
3.7684798
2.7375759
1.7056647
0.9384632
0.47574994
0.22844188
0.10494017
0.04597466
0.018961923
0.007194635
0.0024204419
0.00068904561
0.00019447807
0.00025569416
0.0018129492
0.17629345
0.2024065
0.2945459
0.57801284
1.1372945
1.8148333
2.2925282
2.3261701
1.9909369
1.5484091
1.630843
2.5783951
3.8056936
4.5349688
4.4614138
3.7529815
2.7244071
1.696251
0.9328722
0.47281482
0.2270136
0.10428146
0.045685958
0.018842941
0.0071495476
0.0024053176
0.00068481891
0.00019350585
0.00025506196
0.0018088701
0.17637775
0.20223461
0.29343757
0.57448291
1.1312695
1.8077498
2.2864255
2.321712
1.9874109
1.5450149
1.6270573
2.5730629
3.7977087
4.5224655
4.4461855
3.7375199
2.7112869
1.6868835
0.92731334
0.46989777
0.22559435
0.10362693
0.045399094
0.018724717
0.0071047459
0.002390289
0.00068061876
0.00019253926
0.00025443162
0.0018048005
0.17645566
0.20205869
0.29233461
0.5709701
1.125256
1.8006675
2.2803179
2.3172504
1.9838858
1.5416231
1.6232708
2.5677213
3.7897079
4.5099592
4.4309732
3.7220954
2.6982147
1.6775626
0.92178695
0.46699915
0.22418439
0.10297677
0.045114157
0.018607292
0.0070602484
0.0023753629
0.00067644728
0.00019157886
0.0002538036
0.0018007436
0.17652731
0.20187886
0.29123707
0.56747451
1.119254
1.7935865
2.2742054
2.3127855
1.9803617
1.5382337
1.6194835
2.56237
3.7816879
4.4974491
4.4157776
3.7067069
2.6851885
1.6682853
0.91629019
0.46411695
0.22278256
0.10233036
0.044830859
0.018490537
0.0070160035
0.0023605209
0.00067229911
0.00019062337
0.00025317709
0.0017966944
0.17659281
0.20169523
0.29014499
0.56399642
1.1132637
1.7865068
2.2680877
2.3083174
1.9768387
1.5348468
1.6156953
2.5570081
3.7736448
4.4849353
4.4005969
3.6913545
2.6722102
1.6590537
0.91082512
0.46125271
0.22138978
0.10168819
0.044549426
0.018374554
0.0069720523
0.0023457774
0.00066817837
0.00018967385
0.00025255337
0.0017926618
0.17665231
0.20150792
0.28905847
0.56053596
1.1072854
1.7794284
2.2619647
2.3038459
1.9733167
1.5314622
1.6119061
2.5516349
3.7655738
4.4724186
4.3854312
3.6760385
2.6592791
1.6498667
0.90539087
0.45840576
0.2200056
0.10105001
0.044269753
0.018259295
0.0069283756
0.0023311258
0.000664083
0.00018872955
0.00025193095
0.0017886348
0.17670591
0.20131702
0.28797761
0.55709335
1.1013192
1.7723511
2.2558363
2.299371
1.9697959
1.52808
1.6081159
2.5462495
3.7574685
4.4598986
4.3702819
3.6607585
2.6463937
1.640724
0.89998737
0.4555762
0.21863018
0.10041594
0.043991896
0.01814479
0.0068849848
0.0023165706
0.00066001444
0.00018779093
0.00025131049
0.0017846181
0.17675376
0.20112266
0.28690245
0.55366878
1.0953652
1.7652749
2.2497022
2.2948928
1.9662763
1.5247001
1.6043247
2.5408523
3.7493219
4.447377
4.3551484
3.6455131
2.6335529
1.6316232
0.89461231
0.45276238
0.21726255
0.099785462
0.043715599
0.018030924
0.0068418351
0.002302096
0.00065596836
0.00018685721
0.00025069204
0.0017806128
0.17679599
0.20092496
0.28583301
0.55026237
1.0894237
1.7582
2.2435624
2.2904112
1.9627579
1.5213226
1.6005327
2.5354435
3.7411242
4.4348572
4.3400293
3.6303033
2.6207586
1.6225666
0.88926775
0.44996585
0.21590363
0.099159067
0.043441111
0.017917808
0.0067989704
0.0022877172
0.00065194911
0.00018592942
0.00025007637
0.0017766239
0.17683274
0.20072404
0.28476934
0.54687441
1.0834949
1.7511262
2.2374166
2.285926
1.9592408
1.5179475
1.5967396
2.5300263
3.7328927
4.4223399
4.3249271
3.6151285
2.6080086
1.6135519
0.88395223
0.44718555
0.21455281
0.098536432
0.043168272
0.017805369
0.0067563629
0.0022734243
0.00064795364
0.00018500645
0.00024946145
0.0017726365
0.17686415
0.20052001
0.28371154
0.54350502
1.0775789
1.7440536
2.2312647
2.2814373
1.9557252
1.5145746
1.5929454
2.5246041
3.7246552
4.4098227
4.3098416
3.5999877
2.595302
1.6045794
0.87866592
0.44442179
0.21321028
0.097917688
0.042897155
0.017693645
0.0067140276
0.0022592231
0.00064398364
0.00018408893
0.00024884876
0.0017686616
0.17689037
0.20031301
0.2826597
0.54015447
1.0716762
1.7369822
2.2251067
2.2769453
1.9522109
1.511204
1.5891497
2.5191765
3.7164114
4.3973055
4.2947699
3.5848792
2.582638
1.5956472
0.87340691
0.44167314
0.21187524
0.097302396
0.042627545
0.01758254
0.0066719249
0.0022450997
0.00064003525
0.00018317615
0.0002482384
0.0017647005
0.17691155
0.20010317
0.28161391
0.53682294
1.0657867
1.7299121
2.2189422
2.2724494
1.9486981
1.5078356
1.5853523
2.5137427
3.7081602
4.3847876
4.2797126
3.5698039
2.5700175
1.5867563
0.86817663
0.4389408
0.21054844
0.096690979
0.042359649
0.017472147
0.0066300938
0.0022310681
0.00063611256
0.00018226901
0.00024763047
0.0017607531
0.17692783
0.19989063
0.28057419
0.53351056
1.0599109
1.7228433
2.2127712
2.2679499
1.9451868
1.5044695
1.5815529
2.5083022
3.699901
4.3722674
4.2646696
3.5547601
2.5574376
1.5779048
0.86297354
0.43622368
0.20922923
0.096083084
0.042093301
0.01736239
0.006588504
0.0022171174
0.00063221243
0.00018136651
0.00024702322
0.0017568065
0.17693937
0.19967576
0.27954057
0.53021761
1.0540489
1.7157758
2.2065935
2.2634469
1.9416771
1.5011057
1.5777511
2.5028542
3.6916328
4.3597439
4.2496384
3.5397467
2.5448989
1.5690937
0.85779861
0.43352248
0.20791802
0.09547894
0.041828609
0.01725332
0.0065471759
0.0022032545
0.00062833689
0.00018046943
0.00024641851
0.0017528746
0.17694632
0.19945873
0.27851313
0.52694421
1.0482012
1.7087098
2.2004091
2.25894
1.9381689
1.4977441
1.5739468
2.4973981
3.6833549
4.3472171
4.2346176
3.5247627
2.5324002
1.5603207
0.85264962
0.43083571
0.20661396
0.094878102
0.041565366
0.017144845
0.0065060729
0.0021894669
0.0006244823
0.00017957695
0.00024581601
0.0017489551
0.17694883
0.19923969
0.27749198
0.52369066
1.0423679
1.7016455
2.1942179
2.2544292
1.9346622
1.4943846
1.5701395
2.4919332
3.6750662
4.3346854
4.2196081
3.5098077
2.5199407
1.5515858
0.84752724
0.42816406
0.20531756
0.094280873
0.041303726
0.017037038
0.0064652245
0.0021757655
0.00062065175
0.00017868965
0.00024521557
0.0017450463
0.17694705
0.19901877
0.2764772
0.52045711
1.0365493
1.6945827
2.1880198
2.2499148
1.9311571
1.4910271
1.5663289
2.4864589
3.6667662
4.3221474
4.2046081
3.4948801
2.5075184
1.5428875
0.8424303
0.42550668
0.20402828
0.093686948
0.041043532
0.016929827
0.0064246018
0.00216214
0.0006168423
0.00017780671
0.00024461601
0.0017411399
0.17694114
0.19879609
0.27546884
0.51724368
1.0307458
1.6875217
2.1818145
2.2453964
1.9276534
1.4876717
1.5625146
2.4809744
3.6584536
4.3096023
4.1896148
3.4799789
2.4951345
1.5342276
0.83736013
0.42286444
0.20274662