/*--------------------------------*- C++ -*----------------------------------*\
| =========                 |                                                 |
| \\      /  F ield         | OpenFOAM: The Open Source CFD Toolbox           |
|  \\    /   O peration     | Version:  v2012                                 |
|   \\  /    A nd           | Website:  www.openfoam.com                      |
|    \\/     M anipulation  |                                                 |
\*---------------------------------------------------------------------------*/
FoamFile
{
    version     2.0;
    format      ascii;
    class       volScalarField;
    location    "903";
    object      Ma;
}
// * * * * * * * * * * * * * * * * * * * * * * * * * * * * * * * * * * * * * //

dimensions      [0 0 0 0 0 0 0];


internalField   nonuniform List<scalar> 
24000
(
0.045954148
0.046362931
0.047552127
0.049245934
0.049798824
0.048581469
0.046470401
0.044235012
0.042095032
0.03970951
0.036575454
0.032945471
0.029434312
0.026101593
0.0227607
0.019444196
0.01633785
0.013533443
0.011069275
0.0089627792
0.0071976361
0.0057301841
0.0045121793
0.0035006505
0.0026597892
0.0019602328
0.0013779082
0.00089300884
0.00048918056
0.00015287996
0.045933485
0.04634171
0.047527826
0.049223184
0.04978391
0.048569263
0.046454979
0.044214497
0.042070663
0.039682898
0.036547528
0.032917097
0.029405168
0.026071122
0.022728889
0.019411445
0.016304874
0.01350067
0.011037208
0.0089320024
0.0071687507
0.0057037987
0.0044888241
0.0034806833
0.0026433651
0.0019473226
0.0013683446
0.00088653792
0.00048550399
0.00015168835
0.045915918
0.046320806
0.047498226
0.049190335
0.04975712
0.048547167
0.046433041
0.044191142
0.042046806
0.039659223
0.036524186
0.032894626
0.02938329
0.026049262
0.022706829
0.019390115
0.016285915
0.013485046
0.011025491
0.0089242587
0.0071643979
0.0057019887
0.0044887067
0.0034815474
0.002644677
0.0019487131
0.0013695795
0.00088748187
0.0004860898
0.00015189344
0.045897357
0.046299547
0.047469878
0.049160418
0.049733822
0.048528032
0.046412961
0.044168386
0.042022301
0.039633934
0.036498577
0.032869456
0.029358535
0.026024145
0.022681525
0.019366045
0.016264304
0.01346636
0.011009843
0.0089114409
0.0071539913
0.0056935762
0.0044819567
0.003476205
0.0026405385
0.0019456089
0.0013673627
0.00088602466
0.00048528117
0.00015163712
0.045878696
0.046278229
0.047441624
0.049130626
0.049710722
0.048508956
0.046392783
0.044145417
0.041997489
0.03960831
0.036472596
0.032843976
0.029333724
0.025999068
0.022656255
0.019342257
0.016243062
0.013448117
0.010994752
0.0088993774
0.0071445416
0.0056862597
0.0044763483
0.0034719594
0.002637381
0.0019433247
0.0013657825
0.00088501415
0.00048473422
0.00015146813
0.045859902
0.046256892
0.047413586
0.049101198
0.049688016
0.048490228
0.04637284
0.044122516
0.041972621
0.039582496
0.036446319
0.032818165
0.029308553
0.025973619
0.02263061
0.019318051
0.016221391
0.013429423
0.010979188
0.0088868217
0.0071345863
0.0056784468
0.0044702759
0.0034672991
0.0026338721
0.0019407574
0.0013639885
0.00088385729
0.00048410292
0.00015127148
0.045841047
0.046235566
0.047385683
0.049071888
0.049665474
0.048471624
0.046352979
0.044099655
0.041947724
0.039556583
0.036419884
0.032792157
0.02928319
0.025947977
0.022604763
0.019293648
0.01619952
0.013410537
0.010963465
0.0088741355
0.0071245269
0.0056705578
0.0044641491
0.0034626024
0.002630339
0.0019381751
0.0013621857
0.00088269547
0.00048346932
0.00015107437
0.045822159
0.046214261
0.047357862
0.049042667
0.049643032
0.048453148
0.0463332
0.044076846
0.041922823
0.039530599
0.036393332
0.032766008
0.029257694
0.025922191
0.022578757
0.019269098
0.016177498
0.013391509
0.010947608
0.0088613252
0.007114361
0.0056625744
0.0044579424
0.0034578389
0.002626753
0.0019355521
0.0013603532
0.00088151398
0.00048282482
0.00015087372
0.045803254
0.046192982
0.047330126
0.049013489
0.049620641
0.048434725
0.046313525
0.044054111
0.041897925
0.03950456
0.036366698
0.032739761
0.029232091
0.025896304
0.022552674
0.019244445
0.016155382
0.013372399
0.010931668
0.0088484411
0.0071041325
0.0056545387
0.004451691
0.0034530403
0.0026231381
0.0019329077
0.0013585056
0.00088032229
0.00048217477
0.00015067132
0.045784342
0.046171724
0.047302451
0.048984311
0.049598276
0.048416377
0.04629389
0.044031442
0.041873034
0.039478473
0.036339993
0.032713449
0.029206413
0.025870361
0.022526528
0.01921974
0.016133215
0.013353235
0.010915682
0.0088355183
0.0070938647
0.0056464687
0.0044454122
0.0034482179
0.0026195054
0.0019302486
0.0013566474
0.00087912357
0.00048152086
0.00015046768
0.045765425
0.046150486
0.047274834
0.04895516
0.049575919
0.048398055
0.046274324
0.044008824
0.041848151
0.039452342
0.03631323
0.032687087
0.029180706
0.025844379
0.022500342
0.019195016
0.016111027
0.013334051
0.010899686
0.0088225807
0.0070835806
0.0056383832
0.0044391184
0.0034433838
0.0026158624
0.0019275822
0.0013547833
0.00087792131
0.0004808647
0.00015026332
0.045746506
0.046129254
0.047247244
0.048925962
0.04955356
0.048379787
0.046254824
0.043986259
0.041823277
0.039426169
0.036286425
0.032660684
0.029154967
0.025818368
0.022474155
0.019170274
0.016088827
0.013314865
0.010883679
0.008809631
0.0070732874
0.0056302863
0.004432815
0.0034385401
0.0026122123
0.0019249097
0.0013529151
0.00087671605
0.00048020681
0.00015005846
0.045727584
0.046108023
0.047219698
0.048896788
0.049531195
0.048361536
0.046235351
0.043963746
0.041798413
0.039399953
0.036259586
0.032634256
0.029129201
0.025792357
0.022447965
0.019145537
0.016066638
0.013295686
0.010867677
0.0087966859
0.0070629978
0.0056221929
0.0044265111
0.0034336964
0.0026085612
0.0019222371
0.0013510466
0.00087551046
0.00047954885
0.00014985355
0.045708661
0.046086809
0.04719219
0.048867567
0.049508817
0.048343331
0.046215958
0.043941306
0.041773562
0.039373694
0.03623272
0.032607813
0.029103419
0.025766341
0.022421774
0.019120826
0.01604447
0.013276524
0.010851699
0.0087837594
0.007052717
0.0056141051
0.0044202129
0.0034288555
0.0026049114
0.0019195646
0.0013491782
0.00087430469
0.0004788909
0.0001496486
0.045689736
0.046065612
0.047164723
0.048838356
0.049486426
0.04832514
0.046196606
0.043918944
0.041748725
0.0393474
0.036205823
0.032581357
0.02907765
0.025740325
0.022395609
0.019096126
0.01602232
0.013257391
0.010835743
0.0087708506
0.0070424493
0.0056060262
0.0044139201
0.0034240187
0.0026012649
0.0019168938
0.0013473107
0.00087309964
0.00047823322
0.00014944372
0.045670809
0.046044429
0.047137279
0.048809101
0.049464016
0.048306992
0.046177283
0.043896649
0.041723903
0.039321064
0.036178899
0.032554889
0.029051872
0.025714323
0.02236946
0.019071451
0.016000202
0.013238285
0.010819808
0.0087579584
0.0070321975
0.0055979576
0.0044076354
0.0034191878
0.0025976226
0.0019142265
0.0013454453
0.00087189596
0.0004775761
0.00014923902
0.045651877
0.04602326
0.047109866
0.048779837
0.049441591
0.048288855
0.046158045
0.043874419
0.041699099
0.039294682
0.036151959
0.032528419
0.029026088
0.025688332
0.022343326
0.019046815
0.015978117
0.013219209
0.010803901
0.0087450907
0.0070219655
0.0055899057
0.0044013612
0.0034143643
0.0025939862
0.0019115635
0.001343583
0.00087069428
0.00047692005
0.00014903468
0.045632936
0.046002104
0.047082487
0.048750554
0.049419143
0.048270759
0.046138825
0.043852257
0.041674314
0.039268245
0.036125009
0.032501951
0.029000318
0.025662355
0.022317227
0.019022203
0.015956062
0.013200165
0.010788032
0.0087322498
0.0070117489
0.0055818651
0.0043950968
0.0034095481
0.0025903534
0.0019089033
0.0013417227
0.0008694936
0.00047626466
0.00014883053
0.045613989
0.04598096
0.047055146
0.048721234
0.049396676
0.048252673
0.046119657
0.043830183
0.04164955
0.039241748
0.036098052
0.032475485
0.028974561
0.025636395
0.022291155
0.018997624
0.015934046
0.013181163
0.010772192
0.0087194366
0.0070015553
0.005573842
0.004388846
0.0034047422
0.0025867296
0.0019062487
0.0013398664
0.00086829549
0.00047561079
0.00014862681
0.045595038
0.045959826
0.047027832
0.048691914
0.049374186
0.048234628
0.046100546
0.043808211
0.041624812
0.039215187
0.036071086
0.032449023
0.028948805
0.025610454
0.022265102
0.018973088
0.015912069
0.013162195
0.010756383
0.0087066477
0.0069913835
0.005565834
0.0043826063
0.0033999448
0.0025831115
0.0019035985
0.0013380127
0.00086709923
0.00047495774
0.00014842333
0.045576082
0.045938703
0.047000539
0.048662541
0.049351672
0.048216592
0.046081451
0.043786325
0.041600105
0.039188553
0.036044115
0.032422569
0.028923054
0.025584537
0.022239092
0.018948588
0.015890132
0.013143264
0.010740612
0.0086938889
0.0069812354
0.0055578448
0.0043763794
0.0033951563
0.0025795005
0.0019009532
0.0013361626
0.0008659051
0.00047430571
0.0001482202
0.045557121
0.045917587
0.046973282
0.048633173
0.049329137
0.048198597
0.046062432
0.043764525
0.041575431
0.039161836
0.036017156
0.032396129
0.028897336
0.025558639
0.022213116
0.018924126
0.015868238
0.013124383
0.010724884
0.0086811654
0.0069711103
0.0055498745
0.0043701672
0.0033903792
0.0025758972
0.0018983141
0.0013343166
0.00086471372
0.00047365523
0.00014801756
0.045538154
0.045896471
0.046946057
0.048603758
0.049306573
0.04818061
0.046043433
0.043742784
0.041550785
0.039135075
0.035990209
0.032369701
0.028871626
0.025532768
0.022187164
0.01889971
0.01584639
0.013105544
0.010709192
0.0086684748
0.0069610134
0.0055419254
0.004363973
0.0033856157
0.0025723041
0.0018956822
0.001332476
0.00086352559
0.00047300665
0.0001478155
0.045519178
0.045875352
0.04691887
0.04857434
0.049283987
0.048162662
0.046024462
0.043721089
0.041526158
0.039108338
0.035963283
0.032343281
0.028845921
0.025506919
0.022161251
0.018875331
0.015824582
0.01308674
0.010693532
0.0086558097
0.0069509383
0.0055339915
0.0043577886
0.0033808594
0.0025687163
0.0018930532
0.0013306372
0.00086233853
0.00047235871
0.00014761359
0.045500185
0.045854233
0.04689169
0.048544883
0.049261371
0.048144723
0.046005554
0.043699426
0.04150155
0.039081623
0.035936368
0.032316875
0.028820233
0.025481089
0.022135377
0.018850991
0.015802814
0.01306798
0.010677916
0.0086431779
0.0069408903
0.0055260789
0.0043516207
0.0033761153
0.0025651378
0.0018904315
0.0013288029
0.00086115476
0.00047171237
0.00014741218
0.045481185
0.045833125
0.046864552
0.04851541
0.049238733
0.048126823
0.045986655
0.043677779
0.04147696
0.039054925
0.035909463
0.032290485
0.028794574
0.025455292
0.022109529
0.018826696
0.015781094
0.013049268
0.010662339
0.0086305812
0.0069308657
0.0055181866
0.0043454676
0.0033713827
0.0025615684
0.0018878166
0.0013269738
0.00085997411
0.00047106762
0.00014721132
0.04546218
0.045812028
0.046837444
0.048485923
0.049216065
0.048108933
0.045967819
0.043656148
0.04145239
0.039028243
0.035882578
0.03226411
0.028768922
0.025429515
0.022083717
0.018802442
0.015759417
0.013030593
0.010646796
0.0086180137
0.0069208655
0.0055103117
0.0043393301
0.0033666619
0.0025580064
0.0018852074
0.0013251486
0.00085879595
0.00047042433
0.00014701089
0.04544317
0.045790941
0.046810384
0.048456392
0.049193371
0.048091081
0.045949013
0.043634548
0.041427839
0.039001577
0.035855715
0.032237747
0.02874328
0.025403762
0.022057948
0.018778224
0.015737777
0.013011954
0.010631286
0.0086054722
0.0069108872
0.0055024528
0.0043332026
0.0033619481
0.0025544501
0.0018826015
0.0013233259
0.00085761915
0.00046978189
0.00014681071
0.045424155
0.045769864
0.046783327
0.048426862
0.049170648
0.04807324
0.045930231
0.043612995
0.041403309
0.038974929
0.035828876
0.032211402
0.028717665
0.025378038
0.022032209
0.018754055
0.01571619
0.012993372
0.010615827
0.0085929684
0.0069009403
0.0054946176
0.0043270945
0.0033572496
0.0025509051
0.0018800037
0.0013215086
0.00085644595
0.00046914148
0.00014661115
0.045405135
0.045748797
0.046756315
0.048397288
0.049147896
0.048055437
0.04591152
0.043591465
0.0413788
0.0389483
0.035802051
0.032185072
0.028692072
0.025352339
0.022006502
0.018729931
0.015694647
0.01297483
0.010600404
0.0085804992
0.0068910161
0.0054868026
0.0043210001
0.0033525612
0.0025473683
0.0018774122
0.0013196953
0.00085527554
0.00046850236
0.00014641198
0.04538611
0.04572774
0.046729326
0.048367712
0.049125119
0.048037645
0.045892819
0.043569952
0.041354311
0.038921688
0.035775239
0.032158762
0.028666487
0.025326666
0.021980842
0.018705842
0.015673144
0.012956325
0.010585015
0.0085680593
0.0068811161
0.0054790051
0.0043149203
0.0033478835
0.002543839
0.0018748262
0.0013178861
0.00085410765
0.0004678645
0.00014621326
0.045367078
0.045706691
0.046702385
0.048338101
0.049102305
0.048019891
0.04587418
0.04354846
0.041329842
0.038895106
0.03574845
0.032132463
0.028640913
0.025301014
0.021955209
0.018681795
0.015651685
0.012937863
0.010569663
0.0085556482
0.0068712407
0.0054712258
0.0043088542
0.003343216
0.0025403163
0.0018722452
0.0013160804
0.00085294186
0.00046722793
0.00014601491
0.045348041
0.04568565
0.046675465
0.048308478
0.049079468
0.048002144
0.045855573
0.04352702
0.041305394
0.038868547
0.035721683
0.032106181
0.028615371
0.025275391
0.021929604
0.018657798
0.015630274
0.012919453
0.01055436
0.0085432736
0.0068613962
0.0054634697
0.0043028063
0.0033385629
0.0025368053
0.001869672
0.0013142802
0.00085177957
0.00046659339
0.00014581718
0.045328998
0.045664614
0.046648569
0.048278828
0.049056593
0.04798444
0.045836995
0.04350561
0.041280968
0.038842007
0.035694942
0.032079913
0.02858984
0.025249791
0.021904046
0.018633829
0.015608899
0.012901075
0.010539085
0.0085309286
0.0068515702
0.0054557301
0.00429677
0.0033339182
0.0025333004
0.0018671031
0.0013124829
0.0008506191
0.00046595987
0.00014561975
0.045309948
0.045643574
0.046621702
0.048249152
0.049033692
0.047966746
0.045818485
0.04348422
0.041256564
0.038815486
0.035668215
0.032053666
0.028564317
0.025224208
0.021878513
0.018609901
0.015587562
0.012882733
0.010523845
0.0085186133
0.0068417693
0.0054480101
0.0042907486
0.0033292851
0.0025298048
0.0018645414
0.0013106903
0.00084946196
0.00046532794
0.00014542281
0.045290891
0.045622536
0.046594875
0.048219468
0.049010756
0.047949086
0.045799985
0.043462849
0.041232181
0.038788983
0.035641504
0.032027431
0.028538808
0.025198654
0.021853003
0.018586018
0.015566271
0.012864438
0.010508642
0.0085063241
0.0068319901
0.0054403059
0.0042847407
0.0033246615
0.0025263151
0.0018619842
0.0013089009
0.00084830673
0.00046469692
0.00014522621
0.045271829
0.045601495
0.046568091
0.048189742
0.048987788
0.047931444
0.045781556
0.043441526
0.04120782
0.0387625
0.035614816
0.032001214
0.028513331
0.025173124
0.021827544
0.01856217
0.015545024
0.012846185
0.010493481
0.0084940674
0.0068222389
0.005432622
0.0042787477
0.0033200497
0.0025228343
0.0018594334
0.0013071162
0.00084715438
0.00046406764
0.00014503011
0.045252761
0.045580465
0.046541307
0.048160013
0.04896479
0.04791383
0.045763155
0.043420244
0.041183485
0.038736038
0.035588156
0.031975013
0.028487864
0.025147617
0.021802113
0.018538361
0.015523812
0.012827967
0.010478351
0.0084818432
0.006812509
0.0054249558
0.0042727684
0.0033154483
0.0025193615
0.0018568878
0.0013053352
0.00084600434
0.00046343977
0.00014483445
0.045233689
0.045559444
0.046514564
0.048130253
0.048941754
0.047896243
0.045744794
0.043398984
0.041159177
0.038709597
0.035561525
0.031948838
0.028462406
0.025122133
0.021776708
0.018514597
0.015502648
0.012809792
0.010463259
0.008469651
0.0068028055
0.0054173119
0.0042668054
0.0033108595
0.0025158986
0.0018543494
0.0013035589
0.00084485745
0.00046281362
0.00014463931
0.045214612
0.045538432
0.046487852
0.048100482
0.048918694
0.047878677
0.045726492
0.043377744
0.041134894
0.03868318
0.035534912
0.031922673
0.02843697
0.025096674
0.021751345
0.01849087
0.015481524
0.012791661
0.010448203
0.0084574823
0.0067931213
0.0054096806
0.0042608523
0.003306277
0.0025124402
0.0018518144
0.0013017847
0.00084371197
0.00046218798
0.00014444431
0.045195528
0.04551743
0.046461186
0.04807069
0.04889559
0.047861142
0.045708202
0.043356548
0.041110637
0.038656793
0.035508318
0.03189653
0.028411557
0.025071241
0.021726015
0.01846718
0.015460441
0.01277357
0.010433189
0.0084453489
0.0067834674
0.0054020731
0.004254918
0.0033017096
0.0025089921
0.0018492875
0.0013000163
0.00084257016
0.00046156423
0.00014424995
0.045176432
0.045496434
0.046434541
0.048040876
0.048872461
0.047843626
0.045690001
0.043335402
0.041086406
0.038630434
0.035481748
0.0318704
0.028386153
0.025045822
0.021700708
0.01844353
0.015439397
0.012755514
0.010418208
0.0084332476
0.0067738359
0.0053944823
0.0042489969
0.0032971522
0.002505552
0.001846766
0.001298252
0.00084143083
0.00046094204
0.00014405607
0.045157331
0.045475447
0.04640792
0.048011048
0.048849292
0.047826143
0.045671813
0.04331428
0.041062201
0.038604097
0.035455211
0.031844298
0.028360757
0.025020435
0.021675438
0.018419922
0.015418397
0.012737501
0.010403259
0.0084211751
0.0067642269
0.0053869123
0.0042430906
0.0032926063
0.0025021204
0.0018442502
0.0012964916
0.00084029408
0.00046032138
0.00014386263
0.045138226
0.045454468
0.046381324
0.047981185
0.048826091
0.047808676
0.045653684
0.043293179
0.041038022
0.038577781
0.0354287
0.031818207
0.028335388
0.024995067
0.021650203
0.018396344
0.015397433
0.012719527
0.010388347
0.0084091247
0.0067546371
0.0053793545
0.0042371931
0.0032880665
0.0024986938
0.001841738
0.0012947332
0.00083915855
0.00045970136
0.00014366938
0.045119116
0.045433496
0.046354772
0.047951317
0.048802855
0.047791245
0.045635597
0.04327212
0.041013869
0.038551489
0.035402213
0.031792139
0.028310034
0.024969718
0.021624992
0.018372805
0.015376507
0.012701591
0.010373475
0.0083971098
0.0067450769
0.0053718203
0.0042313155
0.0032835415
0.0024952781
0.001839234
0.0012929807
0.00083802697
0.00045908328
0.00014347674
0.0451
0.045412529
0.046328262
0.047921422
0.048779579
0.047773826
0.045617543
0.043251116
0.040989744
0.03852522
0.035375748
0.031766084
0.028284688
0.024944391
0.02159981
0.018349309
0.015355623
0.012683688
0.010358631
0.0083851232
0.0067355369
0.0053643007
0.0042254485
0.0032790252
0.0024918681
0.0018367347
0.0012912313
0.00083689738
0.00045846617
0.00014328443
0.04508088
0.045391558
0.046301755
0.04789151
0.048756275
0.047756445
0.045599558
0.043230137
0.040965648
0.038498976
0.035349305
0.031740056
0.028259351
0.024919088
0.02157467
0.018325842
0.015334779
0.01266583
0.010343819
0.0083731635
0.0067260173
0.0053567988
0.0042195951
0.0032745191
0.0024884661
0.0018342407
0.0012894861
0.00083577027
0.00045785058
0.00014309259
0.045061754
0.045370591
0.046275281
0.047861583
0.048732922
0.047739082
0.045581583
0.043209182
0.04094158
0.038472755
0.035322898
0.031714044
0.028234044
0.024893807
0.021549552
0.018302414
0.01531397
0.012648008
0.010329046
0.0083612289
0.0067165192
0.0053493129
0.0042137529
0.0032700213
0.0024850702
0.0018317507
0.0012877435
0.00083464482
0.00045723602
0.00014290105
0.045042612
0.045349617
0.046248834
0.047831632
0.048709544
0.047721746
0.045563696
0.04318827
0.040917541
0.038446562
0.035296519
0.031688054
0.028208747
0.024868542
0.021524459
0.018279029
0.015293203
0.012630226
0.010314312
0.0083493293
0.0067070497
0.0053418493
0.0042079287
0.0032655371
0.0024816854
0.0018292687
0.0012860061
0.00083352274
0.00045662333
0.00014271007
0.045023461
0.045328649
0.046222432
0.047801676
0.048686121
0.047704439
0.045545825
0.043167416
0.040893533
0.038420404
0.035270169
0.031662078
0.028183456
0.024843303
0.02149941
0.018255675
0.015272475
0.012612475
0.010299604
0.0083374547
0.006697599
0.0053343989
0.0042021148
0.0032610603
0.0024783051
0.0018267904
0.0012842712
0.00083240245
0.00045601138
0.00014251933
0.045004304
0.045307688
0.046196067
0.047771683
0.048662664
0.047687152
0.045528017
0.043146586
0.040869556
0.038394277
0.035243841
0.031636126
0.028158176
0.024818086
0.021474385
0.018232356
0.015251785
0.012594771
0.01028493
0.0083256104
0.0066881717
0.0053269678
0.0041963163
0.0032565961
0.002474934
0.0018243195
0.0012825416
0.00083128556
0.00045540117
0.00014232915
0.044985144
0.045286736
0.046169705
0.047741679
0.04863917
0.047669895
0.045510246
0.043125782
0.04084561
0.038368177
0.035217533
0.031610192
0.028132925
0.024792882
0.021449379
0.018209073
0.015231127
0.012577099
0.010270296
0.0083137911
0.0066787651
0.0053195541
0.0041905298
0.0032521405
0.0024715695
0.0018218524
0.001280815
0.00083017033
0.000454792
0.0001421393
0.044965981
0.045265791
0.046143376
0.047711659
0.048615634
0.047652656
0.045492518
0.043105027
0.040821697
0.038342105
0.035191255
0.031584277
0.02810768
0.024767703
0.021424414
0.018185828
0.015210513
0.012559463
0.010255694
0.0083020018
0.006669383
0.0053121589
0.0041847578
0.0032476962
0.0024682136
0.0018193913
0.0012790924
0.00082905769
0.00045418437
0.0001419499
0.044946812
0.045244855
0.046117086
0.047681621
0.04859207
0.04763545
0.04547485
0.043084327
0.040797819
0.038316064
0.035165008
0.03155838
0.028082444
0.024742546
0.021399477
0.018162614
0.015189936
0.012541864
0.010241121
0.0082902387
0.0066600215
0.0053047782
0.0041789973
0.0032432597
0.0024648643
0.0018169351
0.0012773729
0.00082794708
0.00045357791
0.00014176086
0.04492764
0.045223927
0.046090839
0.047651577
0.048568455
0.047618263
0.045457204
0.043063653
0.040773975
0.038290052
0.035138792
0.031532501
0.028057227
0.024717409
0.021374562
0.018139436
0.015169396
0.012524308
0.010226583
0.0082785084
0.0066506856
0.0052974185
0.0041732538
0.0032388374
0.0024615247
0.0018144866
0.0012756587
0.00082684013
0.00045297324
0.00014157238
0.044908463
0.045203006
0.046064621
0.047621502
0.048544813
0.047601106
0.045439637
0.043043005
0.040750165
0.038264071
0.035112597
0.031506643
0.028032035
0.024692286
0.021349678
0.018116298
0.015148891
0.012506784
0.010212082
0.0082668005
0.0066413669
0.0052900724
0.0041675196
0.0032344211
0.0024581891
0.001812041
0.0012739466
0.0008257343
0.00045236902
0.00014138404
0.044889282
0.045182092
0.046038417
0.047591426
0.048521123
0.047583974
0.045422081
0.043022418
0.040726389
0.038238121
0.035086424
0.031480803
0.028006851
0.024667188
0.021324828
0.018093189
0.015128427
0.012489293
0.010197613
0.0082551215
0.0066320732
0.0052827462
0.0041618007
0.0032300171
0.002454863
0.0018096017
0.0012722391
0.00082463136
0.00045176646
0.00014119623
0.044870096
0.045161185
0.046012238
0.047561321
0.048497401
0.047566864
0.045404607
0.043001876
0.04070265
0.038212203
0.035060275
0.031454984
0.027981677
0.024642114
0.021299999
0.018070115
0.015107999
0.012471846
0.010183174
0.0082434705
0.006622801
0.0052754358
0.0041560942
0.0032256229
0.0024515447
0.001807168
0.0012705357
0.00082353105
0.00045116554
0.00014100894
0.044850905
0.045140283
0.045986104
0.047531201
0.048473639
0.047549779
0.045387149
0.04298136
0.040678946
0.038186321
0.035034163
0.031429179
0.027956527
0.024617051
0.021275194
0.018047081
0.015087606
0.012454437
0.010168771
0.0082318519
0.0066135543
0.0052681458
0.0041504041
0.0032212399
0.0024482355
0.0018047411
0.0012688365
0.00082243353
0.0004505662
0.00014082211
0.044831708
0.045119379
0.045960011
0.047501075
0.048449835
0.047532712
0.045369754
0.042960871
0.040655283
0.038160476
0.03500808
0.031403401
0.027931394
0.024592008
0.021250426
0.018024073
0.015067249
0.012437055
0.0101544
0.0082202527
0.0066043221
0.0052608659
0.0041447212
0.003216863
0.0024449292
0.0018023163
0.0012671386
0.00082133681
0.00044996708
0.00014063534
0.044812506
0.04509848
0.045933942
0.047470921
0.048426
0.047515671
0.04535239
0.042940454
0.040631657
0.038134666
0.034982023
0.031377638
0.027906268
0.024566985
0.021225677
0.018001099
0.015046931
0.012419708
0.010140061
0.0082086825
0.0065951155
0.0052536083
0.0041390554
0.003212499
0.0024416327
0.0017998993
0.0012654463
0.00082024377
0.00044936983
0.00014044915
0.044793299
0.045077575
0.045907889
0.047440775
0.048402116
0.047498651
0.045335074
0.042920069
0.040608067
0.038108888
0.034955991
0.031351898
0.02788115
0.024541975
0.021200943
0.017978155
0.015026643
0.012402403
0.010125751
0.0081971383
0.0065859282
0.0052463657
0.0041334014
0.0032081448
0.0024383441
0.0017974874
0.001263758
0.00081915318
0.00044877398
0.00014026344
0.044774087
0.045056676
0.045881857
0.047410598
0.048378208
0.047481655
0.045317799
0.04289971
0.04058451
0.038083141
0.034929982
0.031326172
0.027856057
0.024516977
0.021176247
0.017955245
0.015006387
0.01238513
0.01011147
0.0081856227
0.0065767636
0.0052391387
0.0041277588
0.0032037989
0.0024350619
0.0017950798
0.0012620727
0.00081806448
0.00044817931
0.00014007808
0.044754871
0.045035788
0.045855871
0.047380427
0.048354243
0.047464682
0.045300557
0.042879393
0.04056099
0.038057426
0.034904004
0.031300474
0.027830979
0.024491999
0.02115157
0.017932361
0.014986168
0.012367884
0.010097224
0.0081741279
0.0065676153
0.0052319248
0.0041221271
0.0031994598
0.0024317849
0.0017926759
0.0012603894
0.00081697703
0.0004475854
0.00013989292
0.044735648
0.045014908
0.045829926
0.04735024
0.048330236
0.047447721
0.045283372
0.042859144
0.040537506
0.038031745
0.034878063
0.031274798
0.02780591
0.024467041
0.021126911
0.017909511
0.014965988
0.012350678
0.010083012
0.0081626639
0.0065584936
0.0052247332
0.0041165129
0.003195136
0.0024285188
0.0017902807
0.0012587121
0.00081589364
0.00044699359
0.00013970843
0.044716415
0.044994035
0.045804006
0.047320029
0.04830618
0.047430773
0.045266208
0.042838922
0.040514059
0.038006098
0.034852159
0.031249148
0.027780852
0.024442089
0.021102281
0.017886697
0.014945837
0.012333512
0.010068828
0.008151225
0.0065493909
0.0052175567
0.00411091
0.00319082
0.0024252582
0.0017878899
0.001257038
0.00081481229
0.00044640274
0.00013952423
0.044697176
0.044973167
0.0457781
0.047289825
0.048282077
0.047413831
0.045249111
0.042818726
0.040490647
0.037980484
0.034826281
0.031223517
0.027755819
0.024417156
0.021077678
0.017863909
0.014925724
0.012316376
0.010054674
0.0081398151
0.0065403103
0.0052103961
0.0041053193
0.0031865139
0.0024220054
0.001785504
0.0012553677
0.00081373318
0.00044581304
0.00013934041
0.044677933
0.044952308
0.045752216
0.047259589
0.048257941
0.047396899
0.045232025
0.042798596
0.040467272
0.037954903
0.034800431
0.031197912
0.027730799
0.024392239
0.021053089
0.017841152
0.014905646
0.01229927
0.010040555
0.0081284284
0.0065312491
0.0052032509
0.0040997397
0.0031822156
0.0024187589
0.0017831222
0.0012537002
0.00081265592
0.00044522455
0.00013915697
0.044658686
0.044931457
0.04572638
0.047229373
0.048233748
0.047379971
0.045215014
0.042778508
0.040443932
0.037929355
0.034774609
0.031172336
0.027705787
0.024367331
0.02102852
0.017818429
0.014885602
0.012282205
0.01002647
0.0081170697
0.0065222113
0.0051961249
0.0040941769
0.0031779299
0.0024155223
0.0017807479
0.0012520377
0.00081158194
0.00044463799
0.0001389741
0.044639435
0.044910614
0.045700586
0.047199119
0.048209527
0.047363047
0.045198009
0.042758445
0.040420628
0.037903848
0.034748824
0.031146785
0.027680785
0.02434243
0.021003983
0.017795733
0.014865586
0.012265172
0.010012407
0.008105732
0.0065131895
0.0051890106
0.0040886216
0.0031736503
0.0024122889
0.0017783763
0.0012503767
0.00081050895
0.00044405188
0.00013879137
0.04462018
0.044889777
0.045674826
0.047168865
0.048185248
0.047346128
0.045181074
0.042738418
0.040397357
0.037878376
0.034723074
0.031121258
0.027655808
0.024317544
0.020979458
0.017773065
0.014845608
0.01224817
0.0099983755
0.0080944232
0.0065041894
0.0051819147
0.004083081
0.0031693819
0.0024090638
0.0017760113
0.0012487205
0.00080943899
0.00044346725
0.00013860911
0.04460092
0.044868945
0.045649073
0.04713861
0.048160933
0.047329212
0.045164147
0.042718459
0.04037412
0.037852938
0.034697357
0.031095752
0.027630838
0.024292664
0.020954942
0.017750421
0.014825661
0.012231194
0.0099843756
0.0080831363
0.0064952082
0.0051748311
0.0040775493
0.0031651208
0.0024058446
0.0017736498
0.0012470671
0.00080837079
0.00044288346
0.00013842711
0.044581653
0.044848111
0.045623343
0.047108327
0.048136572
0.047312302
0.045147288
0.042698523
0.040350917
0.037827531
0.034671668
0.031070283
0.027605871
0.024267782
0.020930455
0.017727809
0.01480574
0.012214257
0.0099704038
0.0080718727
0.0064862459
0.0051677638
0.0040720305
0.0031608689
0.0024026329
0.0017712934
0.0012454173
0.00080730493
0.00044230111
0.00013824557
0.044562373
0.044827283
0.04559766
0.047078071
0.048112162
0.04729539
0.045130438
0.04267861
0.040327752
0.037802155
0.034646006
0.031044838
0.027580915
0.024242908
0.020905982
0.017705219
0.014785849
0.012197348
0.0099564544
0.0080606292
0.006477299
0.0051607073
0.0040665208
0.0031566231
0.0023994257
0.0017689402
0.0012437695
0.00080624026
0.00044171957
0.00013806427
0.044543086
0.044806457
0.045572019
0.047047774
0.048087718
0.047278479
0.045113651
0.042658765
0.04030463
0.037776811
0.034620372
0.031019426
0.027555982
0.024218039
0.020881516
0.017682656
0.014765995
0.012180468
0.0099425349
0.0080494132
0.0064683746
0.0051536711
0.004061026
0.00315239
0.0023962275
0.0017665942
0.0012421264
0.00080517875
0.00044113978
0.0001378835
0.044523794
0.044785625
0.045546417
0.047017494
0.048063214
0.047261574
0.045096878
0.042638954
0.040281541
0.037751498
0.034594775
0.03099404
0.027531052
0.024193164
0.020857071
0.01766012
0.014746165
0.012163611
0.0099286424
0.0080382162
0.0064594634
0.0051466429
0.0040555375
0.0031481612
0.0023930319
0.0017642507
0.001240485
0.00080411831
0.00044056034
0.00013770284
0.044504497
0.044764799
0.045520821
0.046987206
0.048038678
0.047244664
0.045080161
0.042619164
0.040258485
0.037726216
0.034569213
0.030968693
0.027506127
0.024168283
0.020832647
0.017637611
0.014726362
0.012146794
0.0099147782
0.008027042
0.006450572
0.0051396301
0.00405006
0.0031439413
0.0023898434
0.0017619115
0.001238847
0.00080306
0.00043998191
0.00013752249
0.044485197
0.044743983
0.04549525
0.046956897
0.048014086
0.047227758
0.045063462
0.042599422
0.040235463
0.037700965
0.034543684
0.030943384
0.027481216
0.024143403
0.020808234
0.01761513
0.014706596
0.012130006
0.0099009383
0.0080158891
0.0064416972
0.005132631
0.0040445938
0.003139729
0.0023866611
0.0017595765
0.001237212
0.00080200362
0.00043940464
0.00013734252
0.044465894
0.044723176
0.045469722
0.04692662
0.047989455
0.047210848
0.045046816
0.042579734
0.040212473
0.037675745
0.034518181
0.030918114
0.027456327
0.024118513
0.020783837
0.017592677
0.014686863