/*--------------------------------*- C++ -*----------------------------------*\
| =========                 |                                                 |
| \\      /  F ield         | OpenFOAM: The Open Source CFD Toolbox           |
|  \\    /   O peration     | Version:  v2012                                 |
|   \\  /    A nd           | Website:  www.openfoam.com                      |
|    \\/     M anipulation  |                                                 |
\*---------------------------------------------------------------------------*/
FoamFile
{
    version     2.0;
    format      ascii;
    class       volScalarField;
    location    "903";
    object      nut;
}
// * * * * * * * * * * * * * * * * * * * * * * * * * * * * * * * * * * * * * //

dimensions      [0 2 -1 0 0 0 0];


internalField   nonuniform List<scalar> 
24000
(
2.323425e-05
1.2706103e-05
1.0504966e-05
1.2228948e-05
1.3795106e-05
1.4926383e-05
1.5156161e-05
1.5209458e-05
1.6069742e-05
1.1322822e-05
7.5714859e-06
6.5340407e-06
6.3594165e-06
5.2889188e-06
3.5436293e-06
2.3372924e-06
1.4695359e-06
7.9978415e-07
3.4196142e-07
1.2484376e-07
4.0261549e-08
1.1760416e-08
3.1337115e-09
7.5255835e-10
1.5774458e-10
2.7255608e-11
3.5542895e-12
3.6134468e-13
1.1240051e-13
1.2033058e-13
2.3338537e-05
1.2767792e-05
1.0485561e-05
1.2178722e-05
1.3755216e-05
1.4898894e-05
1.5137132e-05
1.5191156e-05
1.6046164e-05
1.1307783e-05
7.5605029e-06
6.5226362e-06
6.3431187e-06
5.2763152e-06
3.5299885e-06
2.327256e-06
1.4623091e-06
7.953559e-07
3.3979127e-07
1.2398055e-07
3.9969244e-08
1.1672787e-08
3.1100657e-09
7.4685137e-10
1.5654685e-10
2.7048351e-11
3.5267091e-12
3.5786041e-13
1.1070054e-13
1.1843546e-13
2.3446406e-05
1.2831313e-05
1.050265e-05
1.2164207e-05
1.3717653e-05
1.4848818e-05
1.5080092e-05
1.5124649e-05
1.6021974e-05
1.1290483e-05
7.5480161e-06
6.5105247e-06
6.3327279e-06
5.2664336e-06
3.5174772e-06
2.3182143e-06
1.4558343e-06
7.9025848e-07
3.3718088e-07
1.2291393e-07
3.9604141e-08
1.1563269e-08
3.0806032e-09
7.3976147e-10
1.5506235e-10
2.679299e-11
3.4943275e-12
3.5555586e-13
1.1086344e-13
1.1871316e-13
2.3555061e-05
1.2895594e-05
1.0498505e-05
1.2139101e-05
1.3682532e-05
1.4809998e-05
1.5041468e-05
1.5083771e-05
1.5996926e-05
1.1272685e-05
7.5354058e-06
6.4985996e-06
6.3183665e-06
5.2526205e-06
3.5045204e-06
2.3094924e-06
1.449938e-06
7.8626372e-07
3.3526956e-07
1.2216888e-07
3.9355994e-08
1.1489841e-08
3.0609689e-09
7.3504829e-10
1.540762e-10
2.6623087e-11
3.4724052e-12
3.5355403e-13
1.1044032e-13
1.1828254e-13
2.3664395e-05
1.2960423e-05
1.0491775e-05
1.2113095e-05
1.3647597e-05
1.4772349e-05
1.5004502e-05
1.5044267e-05
1.5971531e-05
1.1254408e-05
7.5225082e-06
6.4866468e-06
6.3052045e-06
5.2342077e-06
3.4919579e-06
2.3009746e-06
1.4440434e-06
7.8207062e-07
3.332202e-07
1.2135647e-07
3.9082404e-08
1.1408376e-08
3.0391148e-09
7.2979402e-10
1.529761e-10
2.6433582e-11
3.4480624e-12
3.5145919e-13
1.1012556e-13
1.1798468e-13
2.3774323e-05
1.3025757e-05
1.0483263e-05
1.2086121e-05
1.3612995e-05
1.4735944e-05
1.4969257e-05
1.5006447e-05
1.5945877e-05
1.123583e-05
7.5094434e-06
6.474714e-06
6.2919065e-06
5.2157533e-06
3.4793591e-06
2.2924289e-06
1.4381426e-06
7.7791634e-07
3.3119875e-07
1.2055778e-07
3.8813961e-08
1.1328518e-08
3.0176994e-09
7.2464546e-10
1.5189802e-10
2.624782e-11
3.4241673e-12
3.4936877e-13
1.097757e-13
1.1764482e-13
2.3884795e-05
1.309155e-05
1.0474266e-05
1.2058839e-05
1.3578583e-05
1.4700112e-05
1.4934746e-05
1.4969239e-05
1.5920049e-05
1.1217036e-05
7.4962562e-06
6.4628004e-06
6.2786898e-06
5.1973974e-06
3.4667898e-06
2.2838833e-06
1.4322348e-06
7.7374874e-07
3.2916993e-07
1.1975589e-07
3.8544366e-08
1.1248301e-08
2.9961842e-09
7.1947236e-10
1.5081472e-10
2.6061151e-11
3.400155e-12
3.4726869e-13
1.0942495e-13
1.1730434e-13
2.3995771e-05
1.3157774e-05
1.0465182e-05
1.2031434e-05
1.35443e-05
1.4664629e-05
1.4900683e-05
1.4932413e-05
1.5894083e-05
1.1198079e-05
7.4829849e-06
6.4509121e-06
6.2654894e-06
5.1790997e-06
3.45424e-06
2.2753426e-06
1.4263307e-06
7.6958782e-07
3.2714609e-07
1.1895646e-07
3.8275692e-08
1.1168366e-08
2.9747446e-09
7.143172e-10
1.4973512e-10
2.5875104e-11
3.3762178e-12
3.4517077e-13
1.0907006e-13
1.1695887e-13
2.4107224e-05
1.3224407e-05
1.0456235e-05
1.2004014e-05
1.3510105e-05
1.4629348e-05
1.4866898e-05
1.4895835e-05
1.5868003e-05
1.1178999e-05
7.4696557e-06
6.439051e-06
6.2523211e-06
5.1608678e-06
3.4417239e-06
2.2668164e-06
1.4204374e-06
7.6543716e-07
3.2512883e-07
1.1816011e-07
3.8008135e-08
1.1088774e-08
2.9533974e-09
7.0918403e-10
1.4866006e-10
2.5689831e-11
3.3523771e-12
3.4307867e-13
1.0871349e-13
1.1661121e-13
2.4219128e-05
1.3291431e-05
1.0447521e-05
1.1976615e-05
1.3475982e-05
1.459421e-05
1.4833301e-05
1.485942e-05
1.5841828e-05
1.1159812e-05
7.4562867e-06
6.4272188e-06
6.2391911e-06
5.142707e-06
3.4292448e-06
2.2583099e-06
1.4145592e-06
7.6130075e-07
3.2312031e-07
1.1736771e-07
3.7742004e-08
1.1009618e-08
2.9321682e-09
7.0407922e-10
1.4759091e-10
2.5505566e-11
3.3286634e-12
3.4099538e-13
1.0835609e-13
1.1626224e-13
2.4331463e-05
1.3358833e-05
1.0439099e-05
1.194924e-05
1.3441912e-05
1.4559177e-05
1.4799853e-05
1.4823124e-05
1.5815565e-05
1.1140535e-05
7.4428907e-06
6.4154165e-06
6.2261058e-06
5.124618e-06
3.4168069e-06
2.2498289e-06
1.4087004e-06
7.5718198e-07
3.2112234e-07
1.1658003e-07
3.7477556e-08
1.0930977e-08
2.9110778e-09
6.9900777e-10
1.4652872e-10
2.5322494e-11
3.3051006e-12
3.3892336e-13
1.0799866e-13
1.1591285e-13
2.4444208e-05
1.3426602e-05
1.0430998e-05
1.1921905e-05
1.3407894e-05
1.4524222e-05
1.4766538e-05
1.4786935e-05
1.5789219e-05
1.1121176e-05
7.4294769e-06
6.4036447e-06
6.2130666e-06
5.1066002e-06
3.4044148e-06
2.2413748e-06
1.4028621e-06
7.530822e-07
3.191355e-07
1.1579728e-07
3.7214872e-08
1.0852872e-08
2.8901325e-09
6.9397119e-10
1.4547382e-10
2.5140672e-11
3.2816967e-12
3.3686349e-13
1.0764147e-13
1.155633e-13
2.4557344e-05
1.3494725e-05
1.0423246e-05
1.1894619e-05
1.3373932e-05
1.4489351e-05
1.4733346e-05
1.4750827e-05
1.5762791e-05
1.1101744e-05
7.4160522e-06
6.3919032e-06
6.2000791e-06
5.0886587e-06
3.3920696e-06
2.2329499e-06
1.3970465e-06
7.4900242e-07
3.1716035e-07
1.1501973e-07
3.6954045e-08
1.0775335e-08
2.8693408e-09
6.8897158e-10
1.4442664e-10
2.4960179e-11
3.2584621e-12
3.3481712e-13
1.0728519e-13
1.1521434e-13
2.4670851e-05
1.3563191e-05
1.0415857e-05
1.1867382e-05
1.3340022e-05
1.445455e-05
1.4700265e-05
1.4714791e-05
1.5736278e-05
1.1082241e-05
7.4026225e-06
6.380192e-06
6.187144e-06
5.0707911e-06
3.3797712e-06
2.2245563e-06
1.3912546e-06
7.4494375e-07
3.1519746e-07
1.1424755e-07
3.6695123e-08
1.069838e-08
2.8487062e-09
6.8400971e-10
1.4338733e-10
2.4781034e-11
3.2353993e-12
3.327844e-13
1.0692981e-13
1.1486597e-13
2.478471e-05
1.3631988e-05
1.0408832e-05
1.1840178e-05
1.3306162e-05
1.4419811e-05
1.4667279e-05
1.4678821e-05
1.5709677e-05
1.1062672e-05
7.3891927e-06
6.3685114e-06
6.1742597e-06
5.0529962e-06
3.3675223e-06
2.2161943e-06
1.3854874e-06
7.4090717e-07
3.132473e-07
1.1348095e-07
3.643818e-08
1.0622027e-08
2.8282343e-09
6.7908696e-10
1.4235619e-10
2.4603288e-11
3.2125146e-12
3.3076597e-13
1.0657557e-13
1.1451844e-13
2.4898901e-05
1.3701106e-05
1.0402175e-05
1.181301e-05
1.3272348e-05
1.4385135e-05
1.4634387e-05
1.4642902e-05
1.5682985e-05
1.1043041e-05
7.3757665e-06
6.3568608e-06
6.1614291e-06
5.0352758e-06
3.3553215e-06
2.2078632e-06
1.3797444e-06
7.3689226e-07
3.1130964e-07
1.1271984e-07
3.6183187e-08
1.0546268e-08
2.8079232e-09
6.7420297e-10
1.4133316e-10
2.4426939e-11
3.1898081e-12
3.2876201e-13
1.0622264e-13
1.1417193e-13
2.5013405e-05
1.3770533e-05
1.0395882e-05
1.1785889e-05
1.3238586e-05
1.4350515e-05
1.4601592e-05
1.460704e-05
1.5656195e-05
1.102335e-05
7.3623469e-06
6.3452395e-06
6.1486526e-06
5.0176295e-06
3.3431687e-06
2.1995646e-06
1.3740262e-06
7.3289944e-07
3.0938474e-07
1.1196434e-07
3.5930191e-08
1.0471118e-08
2.787777e-09
6.6935875e-10
1.4031847e-10
2.4252023e-11
3.1672852e-12
3.2677309e-13
1.0587116e-13
1.1382661e-13
2.5128201e-05
1.3840259e-05
1.0389955e-05
1.1758811e-05
1.3204872e-05
1.4315955e-05
1.4568891e-05
1.4571227e-05
1.5629303e-05
1.10036e-05
7.3489373e-06
6.3336472e-06
6.1359284e-06
5.000055e-06
3.3310649e-06
2.1912975e-06
1.3683323e-06
7.2892842e-07
3.0747237e-07
1.1121429e-07
3.5679123e-08
1.0396556e-08
2.7677896e-09
6.6455263e-10
1.3931172e-10
2.4078473e-11
3.1449363e-12
3.2479829e-13
1.0552091e-13
1.1348224e-13
2.524327e-05
1.391027e-05
1.0384388e-05
1.1731764e-05
1.3171208e-05
1.4281449e-05
1.4536276e-05
1.4535463e-05
1.5602301e-05
1.0983794e-05
7.3355411e-06
6.3220836e-06
6.1232578e-06
4.9825526e-06
3.3190092e-06
2.1830619e-06
1.3626634e-06
7.2497961e-07
3.0557274e-07
1.1046982e-07
3.543003e-08
1.0322595e-08
2.7479648e-09
6.5978571e-10
1.3831316e-10
2.3906329e-11
3.1227671e-12
3.2283834e-13
1.0517228e-13
1.1313925e-13
2.5358591e-05
1.3980557e-05
1.0379189e-05
1.170474e-05
1.3137578e-05
1.4246976e-05
1.450373e-05
1.4499755e-05
1.5575179e-05
1.0963931e-05
7.3221619e-06
6.3105481e-06
6.1106399e-06
4.9651229e-06
3.3070005e-06
2.1748581e-06
1.3570187e-06
7.2105263e-07
3.0368565e-07
1.0973085e-07
3.5182887e-08
1.0249229e-08
2.7283009e-09
6.5505757e-10
1.3732273e-10
2.3735579e-11
3.1007761e-12
3.2089291e-13
1.0482503e-13
1.1279736e-13
2.5474144e-05
1.4051107e-05
1.0374348e-05
1.1677756e-05
1.3103989e-05
1.4212539e-05
1.4471254e-05
1.4464088e-05
1.5547931e-05
1.0944014e-05
7.3088028e-06
6.2990399e-06
6.0980744e-06
4.947764e-06
3.2950407e-06
2.1666864e-06
1.3513985e-06
7.1714755e-07
3.0181117e-07
1.0899738e-07
3.4937698e-08
1.0176458e-08
2.7087982e-09
6.5036831e-10
1.3634044e-10
2.3566234e-11
3.0789646e-12
3.189622e-13
1.0447925e-13
1.1245671e-13
2.5589909e-05
1.412191e-05
1.0369859e-05
1.1650808e-05
1.307044e-05
1.4178136e-05
1.443886e-05
1.4428462e-05
1.552055e-05
1.0924044e-05
7.2954664e-06
6.2875586e-06
6.085561e-06
4.9304741e-06
3.2831283e-06
2.1585458e-06
1.3458029e-06
7.1326418e-07
2.9994901e-07
1.0826925e-07
3.4694392e-08
1.0104259e-08
2.68945e-09
6.4571614e-10
1.353659e-10
2.3398219e-11
3.0573232e-12
3.1704564e-13
1.0413508e-13
1.1211743e-13
2.5705865e-05
1.4192952e-05
1.0365714e-05
1.1623885e-05
1.3036929e-05
1.4143768e-05
1.4406515e-05
1.4392891e-05
1.5477201e-05
1.0904073e-05
7.2821556e-06
6.2761036e-06
6.0730985e-06
4.9132556e-06
3.2712627e-06
2.1504375e-06
1.3402324e-06
7.0940304e-07
2.9809955e-07
1.0754665e-07
3.4453042e-08
1.0032657e-08
2.6702631e-09
6.4110285e-10
1.3439949e-10
2.3231604e-11
3.035861e-12
3.1514403e-13
1.0379266e-13
1.1177971e-13
2.5821991e-05
1.4264224e-05
1.0361922e-05
1.1596974e-05
1.3003459e-05
1.4109439e-05
1.4374189e-05
1.4357377e-05
1.5429329e-05
1.0884142e-05
7.2688712e-06
6.2646739e-06
6.0606862e-06
4.8961052e-06
3.2594438e-06
2.14236e-06
1.3346855e-06
7.0556324e-07
2.962623e-07
1.0682938e-07
3.4213578e-08
9.9616271e-09
2.6512312e-09
6.3652687e-10
1.3344088e-10
2.3066327e-11
3.0145698e-12
3.1325625e-13
1.0345144e-13
1.1144291e-13
2.5938267e-05
1.4335713e-05
1.0358497e-05
1.157009e-05
1.2970025e-05
1.4075136e-05
1.4341876e-05
1.4321928e-05
1.5381658e-05
1.0864251e-05
7.2556129e-06
6.2532688e-06
6.0483251e-06
4.8790222e-06
3.2476713e-06
2.1343131e-06
1.3291628e-06
7.0174507e-07
2.9443739e-07
1.0611747e-07
3.3976005e-08
9.8911735e-09
2.632355e-09
6.3198846e-10
1.3249014e-10
2.2902404e-11
2.9934516e-12
3.1138285e-13
1.0311188e-13
1.1110756e-13
2.605467e-05
1.4407404e-05
1.035544e-05
1.1543248e-05
1.2936638e-05
1.404087e-05
1.4309581e-05
1.4286535e-05
1.5334154e-05
1.0844402e-05
7.24238e-06
6.2418874e-06
6.0360139e-06
4.8620072e-06
3.2359433e-06
2.1262965e-06
1.3236637e-06
6.9794807e-07
2.9262449e-07
1.0541075e-07
3.3740262e-08
9.821276e-09
2.613629e-09
6.2748624e-10
1.3154698e-10
2.2739785e-11
2.9725005e-12
3.0952341e-13
1.02774e-13
1.107737e-13
2.6171181e-05
1.4479287e-05
1.035275e-05
1.1516441e-05
1.2903296e-05
1.4006639e-05
1.4277308e-05
1.42512e-05
1.5286803e-05
1.0824594e-05
7.2291722e-06
6.2305292e-06
6.0237513e-06
4.845059e-06
3.2242607e-06
2.1183102e-06
1.318188e-06
6.9417216e-07
2.9082369e-07
1.0470932e-07
3.3506391e-08
9.7519498e-09
2.595058e-09
6.2302133e-10
1.3061164e-10
2.2578516e-11
2.9517223e-12
3.076783e-13
1.0243765e-13
1.1044115e-13
2.6287777e-05
1.4551347e-05
1.035042e-05
1.1489654e-05
1.2869997e-05
1.397244e-05
1.4245049e-05
1.4215921e-05
1.523961e-05
1.0804827e-05
7.2159893e-06
6.2191933e-06
6.0115372e-06
4.8281757e-06
3.2126226e-06
2.1103526e-06
1.3127347e-06
6.9041658e-07
2.8903449e-07
1.0401293e-07
3.3274301e-08
9.6831641e-09
2.576633e-09
6.1859162e-10
1.2968365e-10
2.241851e-11
2.9311056e-12
3.0584639e-13
1.0210255e-13
1.101096e-13
2.6404437e-05
1.4623574e-05
1.0348459e-05
1.1462886e-05
1.2836735e-05
1.3938271e-05
1.4212795e-05
1.4180691e-05
1.5192583e-05
1.0785102e-05
7.2028314e-06
6.207879e-06
5.9993723e-06
4.8113576e-06
3.2010285e-06
2.1024253e-06
1.3073051e-06
6.8668221e-07
2.8725733e-07
1.0332174e-07
3.3044048e-08
9.6149377e-09
2.5583593e-09
6.1419839e-10
1.287633e-10
2.2259818e-11
2.9106573e-12
3.040286e-13
1.0176921e-13
1.0977963e-13
2.6521141e-05
1.4695953e-05
1.0346862e-05
1.143616e-05
1.2803515e-05
1.3904124e-05
1.4180547e-05
1.4145516e-05
1.5145724e-05
1.0765418e-05
7.1896986e-06
6.1965855e-06
5.9872532e-06
4.7946044e-06
3.1894781e-06
2.0945276e-06
1.3018983e-06
6.8296825e-07
2.8549173e-07
1.0263555e-07
3.2815551e-08
9.5472442e-09
2.5402295e-09
6.0983985e-10
1.2785022e-10
2.2102374e-11
2.8903684e-12
3.0222399e-13
1.0143734e-13
1.0945094e-13
2.6637867e-05
1.4768472e-05
1.0345628e-05
1.1409473e-05
1.2770343e-05
1.3870011e-05
1.4148314e-05
1.4110391e-05
1.5099012e-05
1.0745777e-05
7.1765907e-06
6.185312e-06
5.9751802e-06
4.7779148e-06
3.1779716e-06
2.0866585e-06
1.2965139e-06
6.7927446e-07
2.8373768e-07
1.019544e-07
3.2588835e-08
9.4800944e-09
2.5222471e-09
6.0551684e-10
1.2694459e-10
2.1946217e-11
2.8702446e-12
3.0043307e-13
1.0110699e-13
1.0912356e-13
2.6754593e-05
1.4841118e-05
1.0344753e-05
1.138281e-05
1.2737212e-05
1.3835927e-05
1.4116094e-05
1.4075313e-05
1.5052492e-05
1.072618e-05
7.163507e-06
6.1740577e-06
5.9631541e-06
4.7612868e-06
3.1665069e-06
2.0788177e-06
1.2911518e-06
6.7560073e-07
2.8199495e-07
1.0127813e-07
3.2363839e-08
9.4134657e-09
2.5044055e-09
6.0122771e-10
1.2604605e-10
2.179128e-11
2.850277e-12
2.9865511e-13
1.0077803e-13
1.0879735e-13
2.68713e-05
1.4913878e-05
1.0344228e-05
1.1356157e-05
1.2704122e-05
1.3801865e-05
1.4083875e-05
1.4040294e-05
1.5006152e-05
1.0706629e-05
7.1504476e-06
6.1628217e-06
5.9511727e-06
4.7447218e-06
3.1550847e-06
2.0710067e-06
1.2858129e-06
6.7194778e-07
2.8026398e-07
1.0060693e-07
3.2140626e-08
9.3473794e-09
2.4867106e-09
5.9697396e-10
1.2515491e-10
2.1637615e-11
2.8304725e-12
2.9689085e-13
1.0045078e-13
1.0847269e-13
2.6987966e-05
1.498674e-05
1.034406e-05
1.1329532e-05
1.267107e-05
1.3767827e-05
1.4051655e-05
1.4005321e-05
1.4959979e-05
1.0687124e-05
7.1374125e-06
6.1516029e-06
5.9392346e-06
4.7282181e-06
3.1437048e-06
2.063223e-06
1.2804953e-06
6.6831396e-07
2.7854387e-07
9.9940415e-08
3.1919061e-08
9.2817924e-09
2.4691504e-09
5.9275265e-10
1.2427056e-10
2.1485117e-11
2.8108171e-12
2.9513888e-13
1.0012483e-13
1.0814912e-13
2.710457e-05
1.505969e-05
1.0344265e-05
1.1302943e-05
1.2638067e-05
1.373381e-05
1.4019442e-05
1.3970399e-05
1.4913948e-05
1.0667666e-05
7.124402e-06
6.1404005e-06
5.9273422e-06
4.7117749e-06
3.1323652e-06
2.0554661e-06
1.2751991e-06
6.6469957e-07
2.7683484e-07
9.9278726e-08
3.16992e-08
9.2167252e-09
2.4517312e-09
5.8856544e-10
1.2339336e-10
2.1333854e-11
2.79132e-12
2.9340009e-13
9.9800455e-14
1.0782695e-13
2.7221091e-05
1.5132717e-05
1.0344851e-05
1.1276373e-05
1.2605108e-05
1.3699821e-05
1.3987237e-05
1.393552e-05
1.4868041e-05
1.0648258e-05
7.1114158e-06
6.1292135e-06
5.9154929e-06
4.6953907e-06
3.1210648e-06
2.0477368e-06
1.2699243e-06
6.6110475e-07
2.7513683e-07
9.8621769e-08
3.1481001e-08
9.1521623e-09
2.4344482e-09
5.8441095e-10
1.2252303e-10
2.1183773e-11
2.7719742e-12
2.9167381e-13
9.9477396e-14
1.0750589e-13
2.7337508e-05
1.520581e-05
1.0345824e-05
1.1249813e-05
1.2572193e-05
1.3665848e-05
1.3955028e-05
1.3900685e-05
1.4822272e-05
1.0628899e-05
7.0984543e-06
6.1180411e-06
5.903685e-06
4.6790661e-06
3.1098065e-06
2.040035e-06
1.2646712e-06
6.5752947e-07
2.7344993e-07
9.7969615e-08
3.1264495e-08
9.0881141e-09
2.4173047e-09
5.802902e-10
1.2165976e-10
2.1034911e-11
2.752785e-12
2.8996068e-13
9.9155906e-14
1.0718622e-13
2.74538e-05
1.5278957e-05
1.034718e-05
1.1223265e-05
1.2539318e-05
1.3631893e-05
1.392281e-05
1.3865891e-05
1.4776655e-05
1.0609592e-05
7.0855179e-06
6.1068817e-06
5.891921e-06
4.6628013e-06
3.0985873e-06
2.0323588e-06
1.2594381e-06
6.5397227e-07
2.7177329e-07
9.7321888e-08
3.1049542e-08
9.0245369e-09
2.4002882e-09
5.7619998e-10
1.2080288e-10
2.0887146e-11
2.7337364e-12
2.8825928e-13
9.8835796e-14
1.0686776e-13
2.7569946e-05
1.5352147e-05
1.0348885e-05
1.1196755e-05
1.2506491e-05
1.3597957e-05
1.389059e-05
1.3831134e-05
1.4731176e-05
1.0590339e-05
7.0726076e-06
6.0957344e-06
5.8801996e-06
4.6465936e-06
3.0874068e-06
2.0247098e-06
1.2542264e-06
6.504344e-07
2.7010759e-07
9.667889e-08
3.0836256e-08
8.961467e-09
2.3834092e-09
5.7214301e-10
1.1995297e-10
2.0740582e-11
2.7148416e-12
2.8657075e-13
9.8517253e-14
1.0655071e-13
2.7685926e-05
1.5425366e-05
1.0350854e-05
1.1170279e-05
1.2473718e-05
1.3564043e-05
1.3858374e-05
1.3796424e-05
1.4685831e-05
1.0571142e-05
7.0597243e-06
6.0845981e-06
5.868517e-06
4.6304426e-06
3.0762659e-06
2.0170872e-06
1.2490352e-06
6.4691534e-07
2.6845243e-07
9.6040405e-08
3.0624551e-08
8.8988761e-09
2.3666595e-09
5.6811711e-10
1.1910958e-10
2.0595138e-11
2.6960899e-12
2.8489385e-13
9.8199793e-14
1.0623451e-13
2.7801718e-05
1.5498605e-05
1.0353272e-05
1.1143813e-05
1.2440993e-05
1.3530146e-05
1.3826152e-05
1.3761753e-05
1.4640629e-05
1.0552004e-05
7.0468688e-06
6.0734711e-06
5.8568767e-06
4.614351e-06
3.0651646e-06
2.009491e-06
1.2438651e-06
6.4341507e-07
2.6680793e-07
9.5406527e-08
3.0414468e-08
8.8367789e-09
2.3500436e-09
5.6412357e-10
1.1827297e-10
2.0450869e-11
2.6774891e-12
2.8322975e-13
9.7884031e-14
1.0591987e-13
2.7917303e-05
1.557185e-05
1.0356368e-05
1.1117344e-05
1.2408313e-05
1.3496259e-05
1.3793914e-05
1.3727121e-05
1.4595576e-05
1.0532927e-05
7.034042e-06
6.0623517e-06
5.8452786e-06
4.5983159e-06
3.0541003e-06
2.0019201e-06
1.2387147e-06
6.399326e-07
2.6517347e-07
9.4776953e-08
3.0205891e-08
8.7751372e-09
2.3335505e-09
5.6015955e-10
1.1744254e-10
2.030766e-11
2.6590244e-12
2.815771e-13
9.7569679e-14
1.0560649e-13
2.8032661e-05
1.5645093e-05
1.0359871e-05
1.1090891e-05
1.2375681e-05
1.3462387e-05
1.3761667e-05
1.3692528e-05
1.4550669e-05
1.0513916e-05
7.0212452e-06
6.0512381e-06
5.8337188e-06
4.5823364e-06
3.0430742e-06
1.9943754e-06
1.2335849e-06
6.3646892e-07
2.6354958e-07
9.4151933e-08
2.9998915e-08
8.713982e-09
2.3171891e-09
5.5622733e-10
1.1661877e-10
2.01656e-11
2.6407072e-12
2.7993677e-13
9.7256754e-14
1.0529437e-13
2.8147772e-05
1.571832e-05
1.0363781e-05
1.106448e-05
1.2343108e-05
1.3428533e-05
1.3729418e-05
1.3657974e-05
1.4505889e-05
1.0494972e-05
7.0084804e-06
6.0401284e-06
5.8221975e-06
4.566412e-06
3.0320858e-06
1.9868553e-06
1.2284747e-06
6.3302313e-07
2.6193571e-07
9.3531192e-08
2.9793436e-08
8.6532801e-09
2.3009501e-09
5.5232461e-10
1.1580118e-10
2.0024601e-11
2.6225254e-12
2.7830751e-13
9.6944917e-14
1.0498313e-13
2.8262617e-05
1.5791521e-05
1.0368465e-05
1.1038089e-05
1.2310589e-05
1.3394692e-05
1.3697157e-05
1.3623458e-05
1.446124e-05
1.0476098e-05
6.9957496e-06
6.02902e-06
5.8107181e-06
4.5505439e-06
3.0211343e-06
1.9793608e-06
1.2233849e-06
6.2959558e-07
2.603322e-07
9.2914924e-08
2.9589532e-08
8.5930574e-09
2.284841e-09
5.4845323e-10
1.1499017e-10
1.988474e-11
2.6044896e-12
2.7669057e-13
9.663472e-14
1.046734e-13
2.8377177e-05
1.5864687e-05
1.0373439e-05
1.1011699e-05
1.227812e-05
1.3360854e-05
1.3664869e-05
1.3588972e-05
1.4416725e-05
1.0457296e-05
6.9830556e-06
6.01791e-06
5.7992781e-06
4.5347286e-06
3.0102184e-06
1.9718906e-06
1.2183138e-06
6.261853e-07
2.5873839e-07
9.2302798e-08
2.9387072e-08
8.5332711e-09
2.2688495e-09
5.4461016e-10
1.1418509e-10
1.9745899e-11
2.5865845e-12
2.7508452e-13
9.6325761e-14
1.0436474e-13
2.8491433e-05
1.5937806e-05
1.0378676e-05
1.0985301e-05
1.2245699e-05
1.332702e-05
1.3632563e-05
1.3554521e-05
1.4372342e-05
1.0438571e-05
6.9704016e-06
6.006795e-06
5.7878753e-06
4.5189662e-06
2.9993397e-06
1.9644448e-06
1.2132622e-06
6.2279286e-07
2.571546e-07
9.169499e-08
2.9186131e-08
8.4739468e-09
2.2529831e-09
5.4079732e-10
1.1338635e-10
1.9608152e-11
2.5688202e-12
2.7349031e-13
9.6018229e-14
1.0405735e-13
2.8605368e-05
1.601087e-05
1.0384253e-05
1.0958922e-05
1.2213336e-05
1.3293196e-05
1.3600243e-05
1.3520103e-05
1.4328077e-05
1.0419925e-05
6.9577913e-06
5.9956714e-06
5.7765127e-06
4.5032582e-06
2.9884962e-06
1.9570226e-06
1.2082294e-06
6.1941757e-07
2.5558042e-07
9.1091279e-08
2.8986621e-08
8.4150556e-09
2.2372337e-09
5.3701266e-10
1.1259351e-10
1.9471421e-11
2.5511861e-12
2.7190691e-13
9.5711866e-14
1.0375095e-13
2.8718963e-05
1.6083868e-05
1.0390192e-05
1.093257e-05
1.2181038e-05
1.3259378e-05
1.3567905e-05
1.3485722e-05
1.4283934e-05
1.040136e-05
6.9452298e-06
5.9845348e-06
5.765191e-06
4.4876027e-06
2.9776878e-06
1.9496256e-06
1.2032164e-06
6.1606012e-07
2.5401633e-07
9.049191e-08
2.8788637e-08
8.3566279e-09
2.2216098e-09
5.3325834e-10
1.1180704e-10
1.9335786e-11
2.5336924e-12
2.7033533e-13
9.540704e-14
1.0344597e-13
2.8832201e-05
1.6156789e-05
1.0396524e-05
1.0906221e-05
1.2148806e-05
1.3225565e-05
1.3535538e-05
1.3451377e-05
1.4239929e-05
1.0382882e-05
6.9327232e-06
5.9733798e-06
5.7539066e-06
4.4719981e-06
2.9669152e-06
1.9422517e-06
1.1982213e-06
6.1271919e-07
2.5246147e-07
8.9896472e-08
2.859202e-08
8.2986131e-09
2.2060971e-09
5.2953071e-10
1.1102615e-10
1.9201113e-11
2.5163218e-12
2.6877387e-13
9.5103306e-14
1.0314191e-13
2.8945064e-05
1.6229622e-05
1.0403259e-05
1.0879864e-05
1.2116635e-05
1.3191751e-05
1.3503145e-05
1.3417065e-05
1.4196051e-05
1.0364492e-05
6.9202786e-06
5.9621999e-06
5.7426613e-06
4.4564458e-06
2.9561772e-06
1.9349012e-06
1.1932453e-06
6.0939549e-07
2.5091627e-07
8.9305182e-08
2.8396862e-08
8.2410418e-09
2.1907047e-09
5.2583219e-10
1.1025139e-10
1.9067499e-11
2.4990872e-12
2.6722398e-13
9.4801135e-14
1.0283928e-13
2.9057537e-05
1.6302358e-05
1.0410407e-05
1.0853505e-05
1.2084531e-05
1.3157945e-05
1.3470734e-05
1.3382791e-05
1.4152292e-05
1.0346193e-05
6.907904e-06
5.9509879e-06
5.7314551e-06
4.4409435e-06
2.945472e-06
1.9275741e-06
1.1882877e-06
6.060887e-07
2.4938053e-07
8.8717916e-08
2.8203108e-08
8.1838953e-09
2.1754268e-09
5.2216126e-10
1.0948239e-10
1.8934878e-11
2.4819803e-12
2.6568475e-13
9.4500147e-14
1.0253767e-13
2.9169603e-05
1.6374989e-05
1.0417971e-05
1.0827177e-05
1.20525e-05
1.3124139e-05
1.3438294e-05
1.3348552e-05
1.4108652e-05
1.0327987e-05
6.8956089e-06
5.9397348e-06
5.7202852e-06
4.4254897e-06
2.9348015e-06
1.9202707e-06
1.1833489e-06
6.0279903e-07
2.4785445e-07
8.8134795e-08
2.8010807e-08
8.1271899e-09
2.1602685e-09
5.1851925e-10
1.0871947e-10
1.8803304e-11
2.4650079e-12
2.641568e-13
9.4200515e-14
1.0223727e-13
2.9281248e-05
1.6447505e-05
1.0425942e-05
1.0800874e-05
1.2020551e-05
1.3090335e-05
1.3405818e-05
1.3314352e-05
1.4065136e-05
1.0309808e-05
6.8833385e-06
5.9284738e-06
5.709148e-06
4.4100837e-06
2.924164e-06
1.9129891e-06
1.1784275e-06
5.9952528e-07
2.4633722e-07
8.7555442e-08
2.7819816e-08
8.0708797e-09
2.1452166e-09
5.149028e-10
1.0796189e-10
1.8672649e-11
2.4481529e-12
2.6263868e-13
9.3902093e-14
1.0193795e-13
2.9392456e-05
1.6519897e-05
1.0434324e-05
1.0774573e-05
1.1988683e-05
1.3056528e-05
1.3373308e-05
1.3280187e-05
1.4021736e-05
1.0291631e-05
6.8710697e-06
5.9172187e-06
5.6980427e-06
4.3947251e-06
2.9135587e-06
1.9057304e-06
1.1735246e-06
5.9626847e-07
2.4482949e-07
8.6980153e-08
2.763025e-08
8.015003e-09
2.1302823e-09
5.1131477e-10
1.0721029e-10
1.8543027e-11
2.4314306e-12
2.6113177e-13
9.3605181e-14
1.0164002e-13
2.9503215e-05
1.6592157e-05
1.044312e-05
1.074825e-05
1.1956895e-05
1.302272e-05
1.3340768e-05
1.3246064e-05
1.3978445e-05
1.0273454e-05
6.858802e-06
5.9059687e-06
5.6869672e-06
4.3794102e-06
2.9029851e-06
1.8984942e-06
1.1686394e-06
5.9302802e-07
2.4333088e-07
8.640874e-08
2.7442036e-08
7.9595344e-09
2.115458e-09
5.0775321e-10
1.0646424e-10
1.841436e-11
2.4148305e-12
2.5963485e-13
9.3309225e-14
1.0134286e-13
2.9613511e-05
1.6664278e-05
1.045234e-05
1.0721924e-05
1.192519e-05
1.2988912e-05
1.3308186e-05
1.3211982e-05
1.3935271e-05
1.0255279e-05
6.8465353e-06
5.8947229e-06
5.6759208e-06
4.3641406e-06
2.8924446e-06
1.8912803e-06
1.1637722e-06
5.8980395e-07
2.4184149e-07
8.5841272e-08
2.7255203e-08
7.9044853e-09
2.1007473e-09
5.0421917e-10
1.0572395e-10
1.828669e-11
2.3983588e-12
2.5814886e-13
9.3014711e-14
1.0104702e-13
2.9723331e-05
1.6736251e-05
1.0461976e-05
1.0695623e-05
1.189358e-05
1.2955097e-05
1.3275553e-05
1.3177938e-05
1.3892211e-05
1.0237104e-05
6.8342691e-06
5.8834802e-06
5.6649033e-06
4.348916e-06
2.8819346e-06
1.8840874e-06
1.1589219e-06
5.8659538e-07
2.4036071e-07
8.5277454e-08
2.7069638e-08
7.8498182e-09
2.0861397e-09
5.0070992e-10
1.0498886e-10
1.8159913e-11
2.382002e-12
2.5667268e-13
9.2721554e-14
1.0075244e-13
2.9832664e-05
1.6808069e-05
1.0472022e-05
1.0669336e-05
1.1862077e-05
1.2921283e-05
1.3242877e-05
1.3143935e-05
1.3849259e-05
1.021893e-05
6.8220031e-06
5.8722397e-06
5.6539125e-06
4.3337332e-06
2.8714551e-06
1.8769172e-06
1.1540897e-06
5.8340342e-07
2.388892e-07
8.4717598e-08
2.6885458e-08
7.7955718e-09
2.0716458e-09
4.9722812e-10
1.0425954e-10
1.8034129e-11
2.3657724e-12
2.5520721e-13
9.2429755e-14
1.0045908e-13
2.99415e-05
1.6879726e-05
1.0482486e-05
1.0643034e-05
1.1830679e-05
1.2887467e-05
1.3210153e-05
1.3109975e-05
1.3806414e-05
1.0200758e-05
6.8097373e-06
5.8610005e-06
5.6429454e-06
4.3185906e-06
2.8610067e-06
1.8697681e-06
1.1492743e-06
5.8022712e-07
2.3742641e-07
8.4161432e-08
2.6702562e-08
7.7417131e-09
2.0572565e-09
4.9377149e-10
1.0353548e-10
1.7909253e-11
2.3496586e-12
2.5375107e-13
9.2138767e-14
1.0016635e-13
3.004983e-05
1.6951214e-05
1.0493359e-05
1.0616692e-05
1.1799392e-05
1.2853651e-05
1.3177367e-05
1.3076057e-05
1.3763686e-05
1.0182589e-05
6.7974716e-06
5.8497614e-06
5.6320034e-06
4.3034906e-06
2.8505888e-06
1.8626404e-06
1.1444766e-06
5.7706673e-07
2.3597253e-07
8.360907e-08
2.6520997e-08
7.6882578e-09
2.0429763e-09
4.9034123e-10
1.0281696e-10
1.7785334e-11
2.3336678e-12
2.5230545e-13
9.1849294e-14
9.9875041e-14
3.0157643e-05
1.7022529e-05
1.0504649e-05
1.0590351e-05
1.1768235e-05
1.2819849e-05
1.3144514e-05
1.3042177e-05
1.3721069e-05
1.0164421e-05
6.7852058e-06
5.8385211e-06
5.6210849e-06
4.2884306e-06
2.8401992e-06
1.8555335e-06
1.1396954e-06
5.7392159e-07
2.345271e-07
8.3060284e-08
2.6340673e-08
7.6351771e-09
2.0287973e-09
4.8693536e-10
1.0210355e-10
1.7662295e-11
2.3177903e-12
2.5086951e-13
9.1561137e-14
9.9584938e-14
3.0264933e-05
1.7093665e-05
1.0516353e-05
1.0564018e-05
1.1737228e-05
1.2786068e-05
1.3111611e-05
1.3008334e-05
1.3678552e-05
1.0146257e-05
6.7729395e-06
5.8272788e-06
5.6101866e-06
4.2734074e-06
2.8298393e-06
1.8484479e-06
1.1349313e-06
5.7079229e-07
2.330905e-07
8.2515263e-08
2.6161662e-08
7.5824938e-09
2.0147258e-09
4.8355547e-10
1.0139559e-10
1.7540197e-11
2.3020338e-12
2.4944371e-13
9.1274149e-14
9.9295858e-14
3.0371692e-05
1.7164616e-05
1.0528475e-05
1.0537733e-05
1.1706334e-05
1.2752271e-05
1.3078679e-05
1.297453e-05
1.3636135e-05
1.0128095e-05
6.7606725e-06
5.8160331e-06
5.5993067e-06
4.2584221e-06
2.8195082e-06
1.8413821e-06
1.1301834e-06
5.6767796e-07
2.3166224e-07
8.1973766e-08
2.5983877e-08
7.5301812e-09
2.0007542e-09
4.8019957e-10
1.0069265e-10
1.741896e-11
2.2863874e-12
2.4802699e-13
9.0988131e-14
9.90076e-14
3.0477913e-05
1.7235376e-05
1.054103e-05
1.0511552e-05
1.16754e-05
1.2718424e-05
1.3045773e-05
1.2940771e-05
1.3593826e-05
1.0109937e-05
6.7484048e-06
5.8047829e-06
5.588445e-06
4.2434749e-06
2.8092056e-06
1.8343375e-06
1.1254529e-06
5.6457933e-07
2.3024274e-07
8.1435998e-08
2.5807394e-08
7.4782632e-09
1.9868894e-09
4.7686951e-10
9.999514e-11
1.7298663e-11
2.2708616e-12
2.4662061e-13
9.0703673e-14
9.8720821e-14
3.0583592e-05
1.7305942e-05
1.0554022e-05
1.0485433e-05
1.1644448e-05
1.2684542e-05
1.3012886e-05
1.2907056e-05
1.3551616e-05
1.0091782e-05
6.7361367e-06
5.793527e-06
5.5775984e-06
4.2285615e-06
2.7989307e-06
1.8273133e-06
1.1207383e-06
5.6149552e-07
2.2883141e-07
8.0901678e-08
2.5632106e-08
7.4267054e-09
1.9731216e-09
4.7356278e-10
9.9302521e-11
1.7179207e-11
2.2554436e-12
2.4522322e-13
9.0420301e-14
9.8435007e-14
3.0688725e-05
1.737631e-05
1.0567467e-05
1.0459386e-05
1.1613496e-05
1.2650646e-05
1.2980013e-05
1.2873384e-05
1.3509498e-05
1.0073632e-05
6.7238679e-06
5.7822644e-06
5.5667641e-06
4.2136815e-06
2.7886845e-06
1.8203095e-06
1.1160405e-06
5.5842708e-07
2.2742862e-07
8.0370977e-08
2.5458077e-08
7.3755281e-09
1.9594569e-09
4.7028097e-10
9.8615123e-11
1.7060653e-11
2.2401414e-12
2.4383558e-13
9.0138127e-14
9.8150263e-14
3.079331e-05
1.7446477e-05
1.0581353e-05
1.0433433e-05
1.1582561e-05
1.2616748e-05
1.2947149e-05
1.2839757e-05
1.3467476e-05
1.0055485e-05
6.7115984e-06
5.7709936e-06
5.5559394e-06
4.1988352e-06
2.7784652e-06
1.8133253e-06
1.1113589e-06
5.553735e-07
2.2603405e-07
7.9843742e-08
2.5285248e-08
7.3247125e-09
1.9458894e-09
4.6702253e-10
9.7932617e-11
1.694294e-11
2.2249475e-12
2.424571e-13
8.9857104e-14
9.7866552e-14
3.0897345e-05
1.7516439e-05
1.0595685e-05
1.0407576e-05
1.1551649e-05
1.2582843e-05
1.2914286e-05
1.280617e-05
1.342555e-05
1.0037342e-05
6.6993278e-06
5.7597133e-06
5.5451224e-06
4.184021e-06
2.7682732e-06
1.8063622e-06
1.1066941e-06
5.5233537e-07
2.2464806e-07
7.9320144e-08
2.5113688e-08
7.2742814e-09
1.932426e-09
4.6378923e-10
9.7255386e-11
1.6826136e-11
2.2098702e-12
2.4108861e-13
8.9577506e-14
9.758417e-14
3.100083e-05
1.7586195e-05
1.061046e-05
1.0381788e-05
1.1520755e-05
1.2548937e-05
1.2881436e-05
1.2772623e-05
1.3383711e-05
1.0019204e-05
6.6870558e-06
5.7484226e-06
5.5343095e-06
4.1692354e-06
2.7581087e-06
1.7994183e-06
1.1020445e-06
5.493114e-07
2.2326985e-07
7.8799816e-08
2.4943257e-08
7.2241893e-09
1.9190536e-09
4.6057778e-10
9.6582729e-11
1.6710119e-11
2.1948933e-12