/*--------------------------------*- C++ -*----------------------------------*\
| =========                 |                                                 |
| \\      /  F ield         | OpenFOAM: The Open Source CFD Toolbox           |
|  \\    /   O peration     | Version:  v2012                                 |
|   \\  /    A nd           | Website:  www.openfoam.com                      |
|    \\/     M anipulation  |                                                 |
\*---------------------------------------------------------------------------*/
FoamFile
{
    version     2.0;
    format      ascii;
    class       volScalarField;
    location    "903";
    object      omega;
}
// * * * * * * * * * * * * * * * * * * * * * * * * * * * * * * * * * * * * * //

dimensions      [0 0 -1 0 0 0 0];


internalField   nonuniform List<scalar> 
24000
(
6586.3209
16001.303
36953.034
64979.726
91937.361
115807.81
132827.73
138826.85
138884.22
157989.42
251024.04
453270.45
681629.07
1002235.8
1422709
1893474.9
2424867.2
3112434.2
4151681.2
5871773.5
8809415.8
13889789
22849596
39236956
70993608
1.3807982e+08
2.9934828e+08
7.7376945e+08
2.7317194e+09
1.7778657e+10
6578.3476
15928.747
36785.758
64806.09
91794.232
115697.69
132766.19
138832.57
138904.84
157938.75
250872.62
453110.24
681683.33
1002678.3
1423391.4
1894276.1
2425846.5
3113885.2
4154028.4
5875631.2
8815781
13900397
22867563
39268175
71050152
1.3818932e+08
2.9958425e+08
7.7437578e+08
2.7338494e+09
1.7792466e+10
6570.2115
15855.456
36620.656
64642.84
91671.37
115620.37
132740.6
138865.89
138937.72
157897.25
250753.89
453003.82
681757.78
1003090.1
1423899.1
1894589.2
2425956.7
3114264.6
4155533.1
5879336.8
8822907.4
13912591
22887710
39302008
71109878
1.383033e+08
2.9982821e+08
7.7500117e+08
2.7360447e+09
1.7806697e+10
6561.8143
15782.294
36456.142
64480.746
91548.552
115540.97
132708.98
138889.91
138963.78
157857.06
250640.46
452888.47
681792.89
1003414.3
1424181.8
1894515.2
2425562.4
3113941.7
4155905.1
5881186.5
8827234.7
13920900
22902633
39328580
71158539
1.3839805e+08
3.0003294e+08
7.755279e+08
2.7378955e+09
1.7818697e+10
6553.1794
15709.25
36291.813
64318.696
91425.475
115461.29
132676.31
138912.78
138989.13
157818.61
250536.46
452790.26
681839.62
1003757.4
1424490.8
1894467.7
2425237.5
3113771.6
4156574.7
5883551.4
8832353.4
13930320
22919059
39357248
71210387
1.3849832e+08
3.002489e+08
7.7608276e+08
2.7398445e+09
1.7831334e+10
6544.3326
15636.426
36127.706
64156.562
91302.129
115381.25
132642.77
138934.7
139013.58
157781.24
250438.72
452704.12
681900.24
1004118.2
1424817.3
1894434.3
2424919.9
3113594.7
4157212.8
5885850.9
8837372
13939613
22935349
39385784
71262124
1.3859851e+08
3.0046482e+08
7.7663768e+08
2.7417941e+09
1.7843974e+10
6535.2878
15563.849
35963.81
63994.233
91178.506
115300.96
132608.72
138956.16
139037.6
157744.77
250345.96
452628.28
681973.35
1004495.7
1425163.4
1894421.6
2424623.1
3113440.8
4157882.2
5888198.3
8842462.8
13949014
22951799
39414568
71314273
1.3869945e+08
3.0068232e+08
7.7719665e+08
2.7437577e+09
1.7856703e+10
6526.0538
15491.532
35800.121
63831.661
91054.604
115220.42
132574.26
138977.3
139061.28
157708.91
250256.81
452559.76
682055.35
1004884.9
1425522.1
1894421
2424336.8
3113296.2
4158561.6
5890557.9
8847571.2
13958443
22968299
39443440
71366582
1.3880071e+08
3.0090049e+08
7.7775731e+08
2.745727e+09
1.7869471e+10
6516.6354
15419.479
35636.633
63668.817
90930.414
115139.64
132539.45
138998.21
139084.72
157673.56
250170.31
452496.44
682143.48
1005281.9
1425888.8
1894428.1
2424057.5
3113159
4159249.7
5892928.7
8852695.1
13967895
22984832
39472369
71418994
1.3890216e+08
3.0111909e+08
7.7831906e+08
2.7477002e+09
1.7882264e+10
6507.0355
15347.688
35473.337
63505.685
90805.93
115058.61
132504.32
139018.96
139107.98
157638.45
250085.77
452436.77
682235.63
1005683.6
1426260
1894439.3
2423782.5
3113026.6
4159943.5
5895306.6
8857827.7
13977358
23001381
39501322
71471448
1.390037e+08
3.0133787e+08
7.788813e+08
2.7496752e+09
1.789507e+10
6497.256
15276.159
35310.231
63342.253
90681.144
114977.33
132468.89
139039.56
139131.11
157603.51
250002.71
452379.68
682330.38
1006088
1426632.7
1894451.9
2423509.1
3112896.5
4160640.9
5897688.2
8862962.9
13986822
23017929
39530271
71523892
1.3910522e+08
3.0155661e+08
7.7944343e+08
2.7516502e+09
1.7907873e+10
6487.2982
15204.889
35147.309
63178.516
90556.051
114895.77
132433.18
139060.05
139154.13
157568.66
249920.76
452324.35
682426.73
1006493.6
1427005.6
1894464.2
2423236.2
3112768.5
4161341.4
5900072.6
8868099
13996284
23034471
39559207
71576308
1.3920667e+08
3.0177521e+08
7.8000518e+08
2.7536234e+09
1.7920665e+10
6477.1632
15133.876
34984.569
63014.465
90430.643
114813.95
132397.19
139080.43
139177.04
157533.86
249839.66
452270.23
682523.97
1006899.4
1427377.6
1894475.3
2422963
3112641.7
4162044.1
5902458.4
8873234.1
14005740
23051000
39588118
71628680
1.3930804e+08
3.0199361e+08
7.8056643e+08
2.7555948e+09
1.7933445e+10
6466.8523
15063.116
34822.006
62850.099
90304.916
114731.86
132360.95
139100.72
139199.83
157499.08
249759.24
452216.99
682621.6
1007304.8
1427747.3
1894483.9
2422688.3
3112514.9
4162747.9
5904845.1
8878367.5
14015190
23067515
39617003
71681003
1.3940932e+08
3.0221182e+08
7.8112719e+08
2.7575644e+09
1.7946216e+10
6456.3668
14992.606
34659.621
62685.412
90178.867
114649.49
132324.46
139120.92
139222.48
157464.28
249679.33
452164.31
682719.25
1007709.1
1428114.4
1894489.7
2422411.7
3112387.7
4163452.2
5907231.1
8883496.3
14024629
23084009
39645850
71733257
1.3951046e+08
3.0242976e+08
7.8168723e+08
2.7595319e+09
1.7958972e+10
6445.7081
14922.346
34497.413
62520.403
90052.491
114566.85
132287.75
139141.04
139244.99
157429.46
249599.8
452112
682816.75
1008112.2
1428478.9
1894492.5
2422133.3
3112260.5
4164157.4
5909616.5
8888620.4
14034056
23100481
39674655
71785432
1.3961145e+08
3.0264736e+08
7.8224643e+08
2.7614964e+09
1.7971708e+10
6434.8776
14852.332
34335.381
62355.07
89925.784
114483.95
132250.84
139161.08
139267.34
157394.62
249520.56
452059.91
682913.92
1008513.8
1428840.1
1894492
2421853
3112132.9
4164862.7
5912000.4
8893739
14043471
23116928
39703416
71837524
1.3971227e+08
3.0286458e+08
7.8280466e+08
2.7634573e+09
1.798442e+10
6423.877
14782.565
34173.525
62189.412
89798.744
114400.77
132213.73
139181.04
139289.5
157359.74
249441.52
452007.93
683010.57
1008913.7
1429198
1894488.1
2421570.5
3112005
4165569
5914384.3
8898854
14052875
23133354
39732138
71889548
1.3981296e+08
3.0308151e+08
7.8336213e+08
2.7654153e+09
1.7997114e+10
6412.7081
14713.043
34011.846
62023.431
89671.369
114317.34
132176.46
139200.91
139311.44
157324.82
249362.58
451955.96
683106.62
1009311.7
1429552.5
1894480.6
2421285.7
3111876.5
4166275.5
5916766.9
8903963
14062266
23149755
39760815
71941489
1.399135e+08
3.0329813e+08
7.8391878e+08
2.7673706e+09
1.8009791e+10
6401.3723
14643.766
33850.347
61857.124
89543.654
114233.65
132139.04
139220.71
139333.13
157289.84
249283.64
451903.9
683202.03
1009707.7
1429903.2
1894469.4
2420998.9
3111748.1
4166982.6
5919148.4
8909066.2
14071644
23166131
39789446
71993344
1.4001387e+08
3.035144e+08
7.8447453e+08
2.7693231e+09
1.802245e+10
6389.8717
14574.734
33689.029
61690.494
89415.598
114149.7
132101.48
139240.43
139354.56
157254.81
249204.62
451851.68
683296.65
1010101.6
1430250.1
1894454.4
2420709.7
3111619
4167690.1
5921528.5
8914163.6
14081007
23182479
39818027
72045107
1.4011405e+08
3.0373026e+08
7.8502927e+08
2.7712719e+09
1.8035084e+10
6378.208
14505.947
33527.893
61523.54
89287.196
114065.5
132063.82
139260.04
139375.71
157219.73
249125.44
451799.25
683390.42
1010493.3
1430593.2
1894435.4
2420418
3111489.7
4168398.6
5923908.8
8919257.4
14090360
23198805
39846566
72096792
1.4021408e+08
3.0394576e+08
7.8558308e+08
2.7732172e+09
1.8047695e+10
6366.3835
14437.407
33366.939
61356.266
89158.446
113981.05
132026.08
139279.57
139396.65
157184.47
249046.02
451746.58
683483.38
1010882.7
1430932.1
1894412
2420123.5
3111359.3
4169106.8
5926286.8
8924343.9
14099698
23215103
39875057
72148390
1.4031395e+08
3.0416092e+08
7.8613597e+08
2.7751591e+09
1.8060285e+10
6354.4001
14369.114
33206.171
61188.669
89029.346
113896.36
131988.26
139298.99
139417.44
157148.92
248966.35
451693.65
683575.53
1011270
1431267.2
1894385
2419826.8
3111228.7
4169815.6
5928664
8929425.3
14109024
23231378
39903504
72199909
1.4041366e+08
3.0437577e+08
7.8668807e+08
2.7770984e+09
1.8072859e+10
6342.2607
14301.067
33045.591
61020.752
88899.891
113811.42
131950.39
139318.31
139438.07
157113.07
248886.42
451640.48
683666.82
1011655
1431598.6
1894354.1
2419527.5
3111097.2
4170524.2
5931039.4
8934500.4
14118335
23247626
39931902
72251336
1.405132e+08
3.0459024e+08
7.8723921e+08
2.7790348e+09
1.8085413e+10
6329.9676
14233.267
32885.199
60852.514
88770.079
113726.23
131912.47
139337.54
139458.57
157076.9
248806.19
451587.08
683757.31
1012037.8
1431926.1
1894319.3
2419226
3110965.5
4171233.7
5933414.3
8939571.2
14127634
23263851
39960257
72302681
1.4061257e+08
3.0480433e+08
7.8778942e+08
2.7809677e+09
1.8097943e+10
6317.523
14165.714
32724.998
60683.957
88639.906
113640.8
131874.52
139356.69
139478.91
157040.4
248725.65
451533.38
683846.99
1012418.5
1432249.6
1894280.8
2418922.2
3110833.5
4171943.3
5935787.3
8944634.8
14136919
23280046
39988561
72353937
1.4071176e+08
3.0501804e+08
7.883386e+08
2.7828966e+09
1.8110448e+10
6304.9294
14098.408
32564.988
60515.083
88509.373
113555.13
131836.55
139375.76
139499.09
157003.54
248644.76
451479.38
683935.81
1012797
1432569.6
1894238.7
2418616.7
3110701.7
4172654.3
5938160.6
8949694.6
14146193
23296221
40016827
72405120
1.4081082e+08
3.0523146e+08
7.8888702e+08
2.7848228e+09
1.8122937e+10
6292.1893
14031.35
32405.174
60345.892
88378.475
113469.23
131798.59
139394.75
139519.11
156966.3
248563.52
451425.09
684023.75
1013173
1432885.3
1894192.3
2418308.3
3110569
4173365.2
5940532
8954748.2
14155453
23312370
40045045
72456219
1.4090972e+08
3.0544455e+08
7.894346e+08
2.7867463e+09
1.8135408e+10
6279.3054
13964.542
32245.557
60176.387
88247.211
113383.09
131760.64
139413.68
139538.96
156928.65
248481.89
451370.5
684110.88
1013546.8
1433197
1894142
2417997.7
3110436.3
4174077.2
5942903.3
8959798.1
14164702
23328497
40073223
72507239
1.4100846e+08
3.0565731e+08
7.8998135e+08
2.7886673e+09
1.8147862e+10
6266.2805
13897.986
32086.138
60006.568
88115.577
113296.71
131722.71
139432.54
139558.64
156890.59
248399.83
451315.57
684197.18
1013918.4
1433505
1894087.9
2417684.9
3110303.2
4174789.4
5945273
8964841.3
14173937
23344596
40101351
72558170
1.4110703e+08
3.0586967e+08
7.905271e+08
2.7905845e+09
1.8160291e+10
6253.1174
13831.684
31926.92
59836.439
87983.572
113210.1
131684.82
139451.34
139578.14
156852.08
248317.35
451260.37
684282.69
1014287.8
1433809.1
1894030
2417369.8
3110169.9
4175502.8
5947643
8969880.9
14183161
23360675
40129440
72609028
1.4120545e+08
3.060817e+08
7.9107197e+08
2.7924983e+09
1.8172698e+10
6239.8189
13765.637
31767.909
59666
87851.193
113123.26
131647
139470.09
139597.47
156813.11
248234.41
451204.92
684367.45
1014654.9
1434109
1893967.6
2417051.7
3110035.4
4176215.5
5950010.4
8974913.6
14192372
23376728
40157484
72659806
1.4130372e+08
3.0629343e+08
7.9161603e+08
2.7944091e+09
1.8185087e+10
6226.3879
13699.849
31609.188
59495.253
87718.436
113036.18
131609.24
139488.79
139616.62
156773.65
248151.01
451149.24
684451.56
1015020.1
1434405.4
1893902
2416731.9
3109901.2
4176929.7
5952378.3
8979943.8
14201573
23392763
40185494
72710519
1.4140187e+08
3.065049e+08
7.9215943e+08
2.796318e+09
1.8197463e+10
6212.8276
13634.322
31450.953
59324.198
87585.299
112948.87
131571.58
139507.44
139635.59
156733.69
248067.11
451093.36
684535.06
1015383.3
1434698.5
1893833
2416410.1
3109766.6
4177644
5954744.7
8984967.7
14210761
23408772
40213457
72761144
1.4149984e+08
3.0671599e+08
7.9270195e+08
2.7982241e+09
1.8209821e+10
6199.141
13569.057
31293.21
59152.836
87451.779
112861.32
131534.01
139526.06
139654.37
156693.17
247982.68
451037.31
684617.97
1015744.5
1434987.7
1893760.2
2416086.2
3109632.1
4178359.4
5957111
8989987.4
14219938
23424758
40241379
72811696
1.4159767e+08
3.0692675e+08
7.9324358e+08
2.8001269e+09
1.8222156e+10
6185.3313
13504.055
31135.961
58981.17
87317.874
112773.54
131496.57
139544.64
139672.96
156652.07
247897.66
450981.07
684700.25
1016103.6
1435273.1
1893683.6
2415760.1
3109497.1
4179074.8
5959475.3
8995000.7
14229102
23440720
40269256
72862166
1.4169533e+08
3.0713717e+08
7.937843e+08
2.802026e+09
1.8234468e+10
6171.4019
13439.316
30979.211
58809.198
87183.579
112685.51
131459.26
139563.2
139691.36
156610.34
247812.01
450924.65
684782.01
1016460.8
1435555.3
1893603.9
2415432.4
3109362.8
4179792.4
5961841.1
9000013
14238259
23456667
40297105
72912582
1.417929e+08
3.0734737e+08
7.9432442e+08
2.803923e+09
1.8246768e+10
6157.3561
13374.842
30822.963
58636.922
87048.891
112597.25
131422.1
139581.72
139709.56
156567.94
247725.69
450868.11
684863.27
1016816.1
1435833.5
1893520.3
2415102.4
3109227.8
4180510
5964205.4
9005019
14247402
23472589
40324909
72962915
1.4189031e+08
3.0755725e+08
7.9486375e+08
2.8058176e+09
1.8259052e+10
6143.1975
13310.634
30667.219
58464.339
86913.809
112508.74
131385.11
139600.22
139727.57
156524.83
247638.64
450811.48
684944.07
1017169.4
1436108
1893433
2414770.5
3109093.2
4181228.9
5966570.1
9010021.8
14256536
23488491
40352676
73013182
1.4198758e+08
3.0776683e+08
7.9540237e+08
2.8077101e+09
1.8271321e+10
6128.9294
13246.694
30511.981
58291.452
86778.326
112419.98
131348.29
139618.7
139745.37
156480.97
247550.78
450754.81
685024.47
1017520.9
1436379
1893341.9
2414436
3108957.8
4181947.8
5968932.6
9015017.9
14265656
23504367
40380398
73063366
1.4208469e+08
3.0797605e+08
7.9594006e+08
2.8095991e+09
1.8283566e+10
6114.5556
13183.025
30357.257
58118.26
86642.444
112330.97
131311.68
139637.16
139762.98
156436.31
247462.05
450698.2
685104.67
1017871
1436646.7
1893247.6
2414099.9
3108822.9
4182668.5
5971296.5
9020013.2
14274770
23520229
40408091
73113493
1.4218169e+08
3.0818502e+08
7.9647705e+08
2.8114851e+09
1.8295793e+10
6100.0797
13119.626
30203.054
57944.763
86506.154
112241.69
131275.28
139655.6
139780.39
156390.8
247372.36
450641.71
685184.63
1018219.7
1436910.6
1893149.5
2413761.7
3108687.4
4183389.2
5973658.9
9025002.3
14283871
23536068
40435743
73163548
1.4227856e+08
3.0839371e+08
7.9701329e+08
2.8133684e+09
1.8308004e+10
6085.505
13056.5
30049.376
57770.963
86369.456
112152.15
131239.11
139674.03
139797.61
156344.38
247281.62
450585.45
685264.37
1018566.5
1437171.2
1893048.1
2413421.8
3108552.6
4184111.7
5976022.3
9029989.5
14292965
23551891
40463364
73213542
1.4237531e+08
3.0860216e+08
7.9754894e+08
2.81525e+09
1.8320204e+10
6070.8351
12993.65
29896.227
57596.859
86232.344
112062.33
131203.19
139692.45
139814.65
156296.99
247189.7
450529.57
685344.03
1018911.6
1437428.3
1892943.1
2413079.4
3108416.8
4184833.7
5978383.1
9034969.2
14302044
23567686
40490938
73263456
1.424719e+08
3.0881027e+08
7.9808378e+08
2.8171293e+09
1.8332388e+10
6056.0735
12931.078
29743.616
57422.456
86094.818
111972.24
131167.54
139710.86
139831.52
156248.56
247096.47
450474.27
685423.79
1019255.1
1437682
1892834.9
2412735.6
3108281.7
4185557.7
5980745.4
9039948.4
14311117
23583469
40518486
73313317
1.4256837e+08
3.0901812e+08
7.9861795e+08
2.8190059e+09
1.8344554e+10
6041.2239
12868.786
29591.55
57247.751
85956.873
111881.85
131132.17
139729.26
139848.23
156199.03
247001.72
450419.72
685503.61
1019596.8
1437932.4
1892723.4
2412390.2
3108146.7
4186282.3
5983106.6
9044921.8
14320178
23599227
40545991
73363099
1.4266471e+08
3.0922565e+08
7.9915126e+08
2.820879e+09
1.8356697e+10
6026.2899
12806.777
29440.031
57072.742
85818.503
111791.16
131097.08
139747.66
139864.8
156148.33
246905.26
450366.23
685583.61
1019936.8
1438179.4
1892608.6
2412043
3108012.3
4187008.9
5985469.3
9049894.1
14329232
23614973
40573470
73412832
1.4276094e+08
3.0943298e+08
7.9968398e+08
2.8227499e+09
1.8368827e+10
6011.2755
12745.054
29289.062
56897.425
85679.707
111700.16
131062.32
139766.04
139881.24
156096.39
246806.81
450314.2
685663.95
1020275.2
1438422.7
1892489.9
2411693.3
3107876.9
4187734.9
5987829.5
9054859.3
14338273
23630693
40600905
73462488
1.4285704e+08
3.0964002e+08
8.0021601e+08
2.8246189e+09
1.8380944e+10
5996.1847
12683.62
29138.647
56721.8
85540.479
111608.83
131027.87
139784.42
139897.57
156043.14
246706.05
450264.12
685744.73
1020612.1
1438662.8
1892368.3
2411342.5
3107742.6
4188463.4
5990191.5
9059824.3
14347309
23646401
40628316
73512097
1.4295302e+08
3.0984684e+08
8.0074752e+08
2.8264864e+09
1.8393052e+10
5981.021
12622.475
28988.791
56545.867
85400.82
111517.17
130993.77
139802.78
139913.83
155988.52
246602.6
450216.67
685825.91
1020947.3
1438899.7
1892243.2
2410989.7
3107608.1
4189192.2
5992552.6
9064784.1
14356333
23662086
40655685
73561629
1.4304887e+08
3.1005332e+08
8.0127821e+08
2.8283509e+09
1.840514e+10
5965.7881
12561.622
28839.502
56369.621
85260.722
111425.14
130960.01
139821.12
139930.05
155932.49
246495.96
450172.81
685907.56
1021281.1
1439133
1892114.7
2410635
3107473.8
4189922.6
5994914.5
9069741.5
14365349
23677755
40683023
73611102
1.4314459e+08
3.1025954e+08
8.0180814e+08
2.8302122e+09
1.8417206e+10
5950.4895
12501.063
28690.783
56193.061
85120.186
111332.75
130926.64
139839.45
139946.26
155874.98
246385.51
450133.74
685989.5
1021613.2
1439363
1891982.7
2410278.2
3107339
4190652.8
5997274.5
9074693.3
14374353
23693402
40710324
73660510
1.432402e+08
3.1046551e+08
8.0233737e+08
2.8320708e+09
1.8429257e+10
5935.129
12440.8
28542.638
56016.186
84979.209
111239.96
130893.65
139857.75
139962.5
155817.02
246273.78
450096.03
686071.32
1021943.8
1439589.9
1891847.9
2409920.4
3107205.3
4191385.7
5999636.5
9079644.8
14383353
23709039
40737603
73709873
1.4333572e+08
3.1067131e+08
8.028662e+08
2.8339283e+09
1.84413e+10
5919.7103
12380.837
28395.072
55838.994
84837.79
111146.77
130860.91
139876.01
139978.81
155759
246161.84
450058.19
686152.83
1022272.6
1439813.3
1891709.3
2409560.4
3107071.4
4192118.8
6001997.2
9084591
14392341
23724651
40764839
73759162
1.4343109e+08
3.1087679e+08
8.0339427e+08
2.8357838e+09
1.845333e+10
5904.2369
12321.175
28248.093
55661.482
84695.93
111053.15
130828.21
139894.24
139995.17
155700.93
246049.68
450020.23
686234.12
1022599.9
1440033.3
1891567.5
2409198.6
3106937.8
4192853.4
6004359.1
9089535.2
14401321
23740249
40792048
73808397
1.4352635e+08
3.1108202e+08
8.0392175e+08
2.8376372e+09
1.8465346e+10
5888.7125
12261.817
28101.708
55483.648
84553.625
110959.1
130795.53
139912.42
140011.6
155642.82
245937.28
449982.11
686315.18
1022925.5
1440250.1
1891422.3
2408835
3106804
4193588.5
6006719.6
9094474.2
14410291
23755826
40819218
73857562
1.4362148e+08
3.1128696e+08
8.044484e+08
2.839487e+09
1.8477338e+10
5873.1407
12202.767
27955.922
55305.488
84410.878
110864.59
130762.87
139930.56
140028.09
155584.65
245824.63
449943.83
686396.07
1023249.7
1440463.7
1891274
2408470.2
3106671.2
4194326.1
6009082.2
9099413.6
14419257
23771394
40846369
73906688
1.4371653e+08
3.1149173e+08
8.0497454e+08
2.8413347e+09
1.8489317e+10
5857.525
12144.026
27810.74
55127.002
84267.688
110769.61
130730.21
139948.64
140044.66
155526.44
245711.69
449905.37
686476.75
1023572.2
1440673.6
1891121.9
2408103
3106538
4195063.6
6011443.2
9104347.2
14428210
23786939
40873481
73955746
1.4381146e+08
3.1169625e+08
8.0550008e+08
2.8431807e+09
1.8501285e+10
5841.8688
12085.599
27666.167
54948.186
84124.061
110674.14
130697.53
139966.68
140061.31
155468.18
245598.47
449866.72
686557.32
1023893.2
1440880.3
1890966.7
2407734.3
3106405.4
4195803.1
6013806
9109280.1
14437158
23802471
40900567
74004755
1.4390628e+08
3.1190055e+08
8.060251e+08
2.8450253e+09
1.8513245e+10
5826.1754
12027.487
27522.212
54769.039
83980
110578.16
130664.81
139984.66
140078.04
155409.88
245484.95
449827.89
686637.82
1024212.7
1441083.8
1890808
2407363.7
3106272.5
4196543
6016167.4
9114207.6
14446095
23817982
40927617
74053700
1.4400098e+08
3.1210457e+08
8.0654949e+08
2.846868e+09
1.8525192e+10
5810.4484
11969.692
27378.882
54589.553
83835.508
110481.66
130632.03
140002.59
140094.85
155351.54
245371.13
449788.89
686718.36
1024531.1
1441284
1890646.1
2406991.6
3106140.4
4197285
6018530.4
9119134.8
14455028
23833483
40954644
74102597
1.4409558e+08
3.1230838e+08
8.0707324e+08
2.8487078e+09
1.8537119e+10
5794.691
11912.216
27236.18
54409.724
83690.597
110384.63
130599.15
140020.46
140111.75
155293.16
245256.97
449749.7
686798.93
1024848.1
1441480.9
1890480.8
2406617.6
3106008.2
4198027.4
6020892.4
9124057.4
14463950
23848964
40981638
74151434
1.4419008e+08
3.1251194e+08
8.075963e+08
2.8505447e+09
1.8549028e+10
5778.9066
11855.061
27094.111
54229.547
83545.271
110287.06
130566.15
140038.26
140128.75
155234.74
245142.45
449710.27
686879.55
1025163.7
1441674.7
1890312.4
2406242.3
3105877
4198772.2
6023256.8
9128980.2
14472868
23864435
41008610
74200231
1.4428449e+08
3.1271536e+08
8.0811897e+08
2.8523804e+09
1.856093e+10
5763.0982
11798.228
26952.679
54049.02
83399.399
110189.16
130533.01
140056
140145.85
155176.27
245027.55
449670.51
686960.23
1025478.1
1441865
1890140.3
2405864.9
3105745.3
4199517.4
6025619.8
9133897.6
14481775
23879885
41035546
74248966
1.4437878e+08
3.1291851e+08
8.0864103e+08
2.8542146e+09
1.8572822e+10
5747.2692
11741.718
26811.893
53868.145
83252.979
110090.88
130499.71
140073.67
140163.04
155117.74
244912.24
449630.42
687041.03
1025791.3
1442052.1
1889965
2405486.2
3105614.8
4200265.1
6027985
9138815.3
14490678
23895325
41062462
74297660
1.4447299e+08
3.1312147e+08
8.0916268e+08
2.8560476e+09
1.8584707e+10
5731.4225
11685.532
26671.759
53686.925
83106
109992.21
130466.26
140091.27
140180.34
155059.17
244796.51
449589.94
687121.93
1026103.1
1442235.7
1889786.2
2405105.6
3105484.4
4201013.4
6030349.5
9143729.1
14499573
23910749
41089347
74346295
1.4456709e+08
3.1332418e+08
8.0968368e+08
2.857878e+09
1.8596573e+10
5715.5609
11629.672
26532.28
53505.362
82958.447
109893.11
130432.63
140108.8
140197.75
155000.54
244680.34
449549.04
687203.04
1026413.7
1442416
1889604
2404723.5
3105354.7
4201763.9
6032716.2
9148643.1
14508463
23926163
41116212
74394891
1.4466111e+08
3.1352672e+08
8.1020409e+08
2.8597056e+09
1.8608422e+10
5699.6872
11574.14
26393.462
53323.459
82810.305
109793.58
130398.82
140126.25
140215.28
154941.86
244563.71
449507.64
687284.37
1026723.3
1442592.6
1889418.1
2404339.4
3105224.6
4202514.7
6035081.6
9153552.1
14517343
23941556
41143043
74443429
1.4475502e+08
3.1372905e+08
8.1072398e+08
2.8615314e+09
1.862026e+10
5683.8038
11518.935
26255.31
53141.221
82661.567
109693.59
130364.82
140143.61
140232.91
154883.13
244446.6
449465.72
687365.99
1027031.9
1442766.1
1889229.2
2403954.2
3105096.2
4203268.7
6037449.9
9158462.3
14526221
23956944
41169861
74491942
1.4484887e+08
3.1393125e+08
8.1124358e+08
2.8633567e+09
1.8632095e+10
5667.9132
11464.06
26117.833
52958.653
82512.216
109593.11
130330.6
140160.89
140250.66
154824.34
244329.02
449423.22
687447.93
1027339.4
1442936.1
1889036.8
2403567.3
3104967.8
4204023.3
6039817.8
9163369.2
14535091
23972315
41196649
74540399
1.4494261e+08
3.1413322e+08
8.1176268e+08
2.8651808e+09
1.8643922e+10
5652.0178
11409.515
25981.036
52775.758
82362.243
109492.14
130296.15
140178.09
140268.53
154765.5
244210.95
449380.1
687530.33
1027646.1
1443102.7
1888840.9
2403178.9
3104840
4204779.7
6042187.3
9168275.7
14543958
23987678
41223418
74588818
1.4503629e+08
3.1433503e+08
8.1228136e+08
2.8670033e+09
1.8655739e+10
5636.1199
11355.3
25844.925
52592.54
82211.633
109390.65
130261.47
140195.19
140286.51
154706.61
244092.39
449336.26
687613.17
1027952.1
1443265.8
1888641.7
2402788.8
3104712.2
4205537.1
6044556.4
9173178.4
14552815
24003024
41250158
74637184
1.4512987e+08
3.145366e+08
8.1279934e+08
2.8688225e+09
1.8667534e+10
5620.2218
11301.418
25709.501
52409.004
82060.375
109288.62
130226.52
140212.18
140304.62
154647.66
243973.32
449291.67
687696.53
1028257.5
1443426
1888439.9
2402398.1
3104586.5
4206298.2
6046929.5
9178084.3
14561673
24018366
41276890
74685532
1.452234e+08
3.1473811e+08
8.1331706e+08
2.8706404e+09
1.8679322e+10
5604.3255
11247.867
25574.771
52225.159
81908.459
109186.03
130191.3
140229.08
140322.85
154588.65
243853.74
449246.24
687780.43
1028562.4
1443582.7
1888234.7
2402005.9
3104460.8
4207059.5
6049301.4
9182986
14570522
24033693
41303595
74733836
1.4531685e+08
3.1493944e+08
8.1383437e+08
2.8724574e+09
1.8691105e+10
5588.4326
11194.648
25440.739
52041.009
81755.873
109082.86
130155.78
140245.86
140341.2
154529.58
243733.62
449199.82
687864.81
1028867.2
1443736.1
1888026.7
2401612.9
3104336.3
4207823
6051675.2
9187887.7
14579368
24049012
41330281
74782104
1.4541022e+08
3.1514059e+08
8.1435131e+08
2.8742736e+09
1.8702884e+10
5572.5449
11141.757
25307.412
51856.559
81602.609
108979.08
130119.95
140262.51
140359.68
154470.44
243612.96
449152.3
687949.55
1029171.8
1443886.4
1887815.9
2401218.6
3104212.4
4208588.3
6054049.8
9192787
14588207
24064318
41356943
74830324
1.4550351e+08
3.1534156e+08
8.1486785e+08
2.8760886e+09
1.8714656e+10
5556.6637
11089.195
25174.794
51671.818
81448.651
108874.67
130083.79
140279.04
140378.27
154411.23
243491.77
449103.67
688034.62
1029476.7
1444033.6
1887602.6
2400824.1
3104090.7
4209357.6
6056428.9
9197690.6
14597049
24079623
41383603
74878533
1.4559677e+08
3.1554245e+08
8.1538404e+08
2.8779015e+09
1.8726416e+10
5540.7906
11036.96
25042.884
51486.791
81293.993
108769.61
130047.27
140295.43
140396.98
154351.93
243370.03
449053.8
688119.76
1029782.5
1444177.6
1887386.4
2400428.2
3103969.2
4210127
6058806.6
9202589.7
14605882
24094912
41410233
74926693
1.4568994e+08
3.1574313e+08
8.1589961e+08
2.8797115e+09
1.873816e+10
5524.9267
10985.05
24911.686
51301.489
81138.624
108663.89
130010.38
140311.66
140415.81
154292.55
243247.73
449003.06
688204.82
1030088.5
1444319.1
1887168.1
2400032
3103849.1
4210899.1
6061187
9207490.1
14614713
24110196
41436853
74974836
1.4578306e+08
3.1594375e+08
8.1641498e+08
2.8815208e+09
1.8749902e+10
5509.073
10933.464
24781.204
51115.92
80982.539
108557.47
129973.1
140327.74
140434.75
154233.07
243124.87
448951.92
688289.9
1030393.3
1444458
1886947.4
2399634.7
3103729.8
4211673.1
6063568.5
9212388.8
14623539
24125468
41463450
75022935
1.4587609e+08
3.1614417e+08
8.1692992e+08
2.8833292e+09
1.8761641e+10
5493.2305
10882.198
24651.445
50930.094
80825.731
108450.34
129935.4
140343.65
140453.82
154173.49
243001.42
448900.4
688375.09
1030697.3
1444594.3
1886724.4
2399237
3103612.7
4212451.1
6065954.7
9217292
14632368
24140743
41490045
75071021
1.4596911e+08
3.163445e+08
8.1744468e+08
2.8851371e+09
1.8773382e+10
5477.4
10831.252
24522.41
50744.022
80668.189
108342.47
129897.27
140359.38
140472.99
154113.81
242877.33
448848.44
688460.32
1031000.3
1444727.9
1886498.9
2398838.4
3103495.9
4213229.6
6068340
9222191.8
14641190
24156003
41516618
75119068
1.4606205e+08
3.1654466e+08
8.1795894e+08
2.8869426e+09
1.8785113e+10
5461.5822
10780.621
24394.1
50557.711
80509.91
108233.84
129858.68
140374.91
140492.27
154054.02
242752.58
448796.03
688545.64
1031302.4
1444859.3
1886271.5
2398439.5
3103380.8
4214011.2
6070728.7
9227094
14650012
24171260
41543181
75167094
1.4615494e+08
3.1674469e+08
8.1847263e+08
2.8887449e+09
1.8796829e+10
5445.7776
10730.311
24266.516
50371.176
80350.886
108124.44
129819.61
140390.24
140511.66
153994.11
242627.15
448743.18
688631.08
1031603.4
1444988
1886041.5
2398039.2
3103266.2
4214794.3
6073118.2
9231994.2
14658828
24186505
41569725
75215088
1.4624775e+08
3.1694459e+08
8.1898592e+08
2.8905452e+09
1.8808539e+10
5429.9865
10680.317
24139.662
50184.427
80191.117
108014.24
129780.04
140405.35
140531.16
153934.08
242501.01
448689.89
688716.7
1031903.8
1445114.3
1885809.2
2397638.7
3103153.7
4215581.3
6075512.2
9236898.8
14667648
24201754
41596267
75263072
1.4634054e+08
3.171444e+08
8.1949895e+08
2.8923446e+09
1.8820254e+10
5414.2091
10630.638
24013.54
49997.48
80030.6
107903.22
129739.96
140420.24
140550.75
153873.91
242374.13
448636.14
688802.49
1032203.4
1445238.4
1885574.9
2397237.5
3103041.9
4216369.5
6077906.6
9241801.7
14676463
24216991
41622787
75311011
1.4643324e+08
3.1734399e+08
8.2001144e+08
2.8941422e+09
1.8831968e+10
5398.4455
10581.268
23888.155
49810.345
79869.329
107791.37
129699.33
140434.89
140570.44
153813.62
242246.47
448581.92
688888.52
1032502.3
1445360.4
1885338.8
2396836
3102931.8
4217160.9
6080304.8
9246708
14685279
24232227
41649306
75358941
1.4652592e+08
3.175435e+08
8.2052363e+08
2.8959381e+09
1.8843683e+10
5382.6958
10532.203
23763.506
49623.033
79707.305
107678.65
129658.13
140449.28
140590.22
153753.18
242118
448527.19
688974.77
1032800.5
1445479.8
1885099.9
2396433
3102822
4217953.5
6082703.3
9251612.4
14694090
24247454
41675804
75406834
1.4661852e+08
3.177428e+08
8.2103504e+08
2.8977296e+09
1.8855385e+10
5366.96
10483.439
23639.593
49435.56
79544.521
107565.06
129616.35
140463.4
140610.08
153692.6
241988.71
448471.97
689061.29
1033098.2
1445597.3
1884859.3
2396030.2
3102714.7
4218750.3
6085106.6
9256520.8
14702905
24262681
41702300
75454718
1.4671108e+08
3.1794199e+08
8.215459e+08
2.8995175e+09
1.8867081e+10
5351.238
10434.973
23516.415
49247.937
79380.984
107450.57
129573.96
140477.25
140630.03
153631.86
241858.55
448416.22
689148.09
1033395.4
1445712.7
1884616.9
2395626.8
3102608.3
4219548.9
6087511.3
9261429.1
14711716
24277901
41728780
75502571
1.4680356e+08
3.1814101e+08
8.2205619e+08
2.9013025e+09
1.8878778e+10
5335.5296
10386.797
23393.972
49060.182
79216.691
107335.17
129530.94
140490.8
140650.05
153570.96
241727.5
448359.97
689235.28
1033692.1
1445826.1
1884372.4
2395222.8
3102503.2
4220350.2
6089919.5
9266340.9
14720530
24293121
41755252
75550399
1.4689598e+08
3.1833982e+08
8.2256587e+08
2.903085e+09
1.8890482e+10
5319.8345
10338.906
23272.268
48872.307
79051.644
107218.84
129487.26
140504.05
140670.14
153509.89
241595.53
448303.15
689322.8
1033988.4
1445937.3
1884125.7
2394817.9
3102398.8
4221153
6092328.4
9271251.5
14729339
24308332
41781710
75598193
1.4698833e+08
3.1853842e+08
8.2307485e+08
2.9048639e+09
1.8902188e+10
5304.1523
10291.295
23151.303
48684.325
78885.848
107101.56
129442.9
140516.97
140690.3
153448.66
241462.61
448245.79