/*--------------------------------*- C++ -*----------------------------------*\
| =========                 |                                                 |
| \\      /  F ield         | OpenFOAM: The Open Source CFD Toolbox           |
|  \\    /   O peration     | Version:  v2012                                 |
|   \\  /    A nd           | Website:  www.openfoam.com                      |
|    \\/     M anipulation  |                                                 |
\*---------------------------------------------------------------------------*/
FoamFile
{
    version     2.0;
    format      ascii;
    class       surfaceScalarField;
    location    "903";
    object      phi;
}
// * * * * * * * * * * * * * * * * * * * * * * * * * * * * * * * * * * * * * //

dimensions      [1 0 -1 0 0 0 0];
oriented        oriented;


internalField   nonuniform List<scalar> 
47170
(
-1.0175546e-08
-4.3922325e-05
-1.5489679e-08
-3.5918586e-05
-1.2251941e-08
-2.8011167e-05
-4.156926e-09
-2.0194634e-05
2.1500511e-09
-1.3677668e-05
5.2893218e-09
-9.0295559e-06
6.1577259e-09
-5.9875081e-06
5.8137654e-09
-4.0425535e-06
4.9941524e-09
-2.8165118e-06
4.0458452e-09
-1.9789368e-06
3.144386e-09
-1.3573549e-06
2.4279343e-09
-9.2114769e-07
1.874334e-09
-6.3493877e-07
1.4304157e-09
-4.4212914e-07
1.0769872e-09
-3.0572346e-07
8.0022659e-10
-2.0871809e-07
5.8714423e-10
-1.4122027e-07
4.2456501e-10
-9.4814988e-08
3.0236999e-10
-6.3195548e-08
2.1161701e-10
-4.1882363e-08
1.4496549e-10
-2.7628189e-08
9.6632434e-11
-1.8118771e-08
6.2268742e-11
-1.1778899e-08
3.8434796e-11
-7.5576116e-09
2.2414179e-11
-4.7556095e-09
1.2062898e-11
-2.9058722e-09
5.7306788e-12
-1.6950873e-09
2.1684875e-12
-9.1232243e-10
4.6798811e-13
-4.1527507e-10
-1.078903e-10
-1.126776e-08
-4.3911057e-05
-1.7395952e-08
-3.5912458e-05
-1.3663622e-08
-2.8014899e-05
-4.0606437e-09
-2.0204237e-05
3.5696402e-09
-1.3685298e-05
7.1362255e-09
-9.0331225e-06
7.989305e-09
-5.9883611e-06
7.311042e-09
-4.0418753e-06
6.003233e-09
-2.8152039e-06
4.6732545e-09
-1.9776069e-06
3.5776902e-09
-1.3562592e-06
2.7445203e-09
-9.2031457e-07
2.101294e-09
-6.3429548e-07
1.5862599e-09
-4.4161418e-07
1.1729493e-09
-3.0531012e-07
8.5001275e-10
-2.0839522e-07
6.0666439e-10
-1.4097693e-07
4.2629719e-10
-9.4634696e-08
2.9487253e-10
-6.3064138e-08
2.0057814e-10
-4.1788131e-08
1.3379731e-10
-2.7561424e-08
8.7053834e-11
-1.8072075e-08
5.4914791e-11
-1.1746773e-08
3.3242629e-11
-7.5359746e-09
1.9048588e-11
-4.7414317e-09
1.0073375e-11
-2.8969169e-09
4.6870459e-12
-1.6897227e-09
1.7218469e-12
-9.0937663e-10
3.5218801e-13
-4.1391918e-10
-1.0753811e-10
-1.1644004e-08
-4.3899413e-05
-1.7935611e-08
-3.5906166e-05
-1.3979459e-08
-2.8018855e-05
-3.9891942e-09
-2.0214227e-05
4.0287292e-09
-1.3693316e-05
7.6693432e-09
-9.0367631e-06
8.4417855e-09
-5.9891335e-06
7.6273701e-09
-4.0410609e-06
6.1779617e-09
-2.8137544e-06
4.7283655e-09
-1.9761573e-06
3.5393008e-09
-1.3550701e-06
2.632912e-09
-9.1940824e-07
1.9394774e-09
-6.3360201e-07
1.3892382e-09
-4.41064e-07
9.5548931e-10
-3.0487635e-07
6.3118225e-10
-2.0807099e-07
4.0217486e-10
-1.4074791e-07
2.470918e-10
-9.4479683e-08
1.4689626e-10
-6.2963948e-08
8.5019833e-11
-4.1726312e-08
4.8148188e-11
-2.7524564e-08
2.6663492e-11
-1.805063e-08
1.4420667e-11
-1.1734543e-08
7.5523312e-12
-7.5291313e-09
3.7910705e-12
-4.7376823e-09
1.7796942e-12
-2.8949188e-09
7.4846898e-13
-1.6887012e-09
2.529029e-13
-9.0889043e-10
4.727466e-14
-4.137202e-10
-1.0749084e-10
-1.1914545e-08
-4.3887498e-05
-1.8320817e-08
-3.589976e-05
-1.4208343e-08
-2.8022968e-05
-3.9546263e-09
-2.0224481e-05
4.3187914e-09
-1.3701589e-05
8.0134163e-09
-9.0404577e-06
8.7453263e-09
-5.9898654e-06
7.8749513e-09
-4.0401905e-06
6.3670245e-09
-2.8122464e-06
4.8609013e-09
-1.9746512e-06
3.6280793e-09
-1.3538373e-06
2.6944772e-09
-9.1847469e-07
1.9890976e-09
-6.328966e-07
1.4318988e-09
-4.4050686e-07
9.9552685e-10
-3.0443995e-07
6.7425087e-10
-2.0774978e-07
4.4803914e-10
-1.4052169e-07
2.9291884e-10
-9.4324633e-08
1.8914834e-10
-6.2860184e-08
1.2096093e-10
-4.1658184e-08
7.6557639e-11
-2.7480172e-08
4.7674623e-11
-1.8021792e-08
2.9024904e-11
-1.1715903e-08
1.7070981e-11
-7.5172064e-09
9.5643384e-12
-4.7301862e-09
4.9681191e-12
-2.8903382e-09
2.2839435e-12
-1.6860278e-09
8.3339388e-13
-9.0745049e-10
1.7027365e-13
-4.130646e-10
-1.0732056e-10
-1.2065935e-08
-4.3875433e-05
-1.852322e-08
-3.5893303e-05
-1.4335968e-08
-2.8027155e-05
-3.9565027e-09
-2.0234861e-05
4.4641553e-09
-1.371001e-05
8.1907072e-09
-9.0441843e-06
8.9067241e-09
-5.9905814e-06
8.0119749e-09
-4.0392958e-06
6.4754277e-09
-2.8107099e-06
4.9380658e-09
-1.9731139e-06
3.679353e-09
-1.3525785e-06
2.7270104e-09
-9.1752239e-07
2.010245e-09
-6.321798e-07
1.4451664e-09
-4.3994183e-07
1.0026119e-09
-3.0399738e-07
6.771672e-10
-2.0742438e-07
4.4793722e-10
-1.4029245e-07
2.9073114e-10
-9.4167466e-08
1.8579873e-10
-6.2755246e-08
1.1734883e-10
-4.1589766e-08
7.3260964e-11
-2.7436085e-08
4.5015607e-11
-1.7993567e-08
2.7057266e-11
-1.1697951e-08
1.5738757e-11
-7.5059031e-09
8.7292588e-12
-4.7231867e-09
4.4984268e-12
-2.8861178e-09
2.0532329e-12
-1.683593e-09
7.450751e-13
-9.061521e-10
1.5145615e-13
-4.1247792e-10
-1.0716911e-10
-1.2154728e-08
-4.3863278e-05
-1.8644733e-08
-3.5886813e-05
-1.4431793e-08
-2.8031368e-05
-3.9841825e-09
-2.0245308e-05
4.5338836e-09
-1.3718528e-05
8.2879127e-09
-9.0479383e-06
9.0018726e-09
-5.9912953e-06
8.1006191e-09
-4.0383946e-06
6.5501943e-09
-2.8091594e-06
4.9949718e-09
-1.9715587e-06
3.7212063e-09
-1.3513047e-06
2.7578135e-09
-9.1655903e-07
2.0333758e-09
-6.3145534e-07
1.4630762e-09
-4.3937157e-07
1.0167187e-09
-3.03551e-07
6.8831372e-10
-2.0709602e-07
4.566984e-10
-1.4006082e-07
2.9751644e-10
-9.4008322e-08
1.9099304e-10
-6.2648717e-08
1.2121755e-10
-4.1520021e-08
7.604229e-11
-2.7390912e-08
4.6932897e-11
-1.7964483e-08
2.8323548e-11
-1.1679347e-08
1.6528132e-11
-7.4941263e-09
9.1928422e-12
-4.7158581e-09
4.7445091e-12
-2.8816803e-09
2.168967e-12
-1.6810235e-09
7.8817033e-13
-9.0477755e-10
1.6105977e-13
-4.1185524e-10
-1.0700805e-10
-1.2205322e-08
-4.3851073e-05
-1.8720944e-08
-3.5880297e-05
-1.4514247e-08
-2.8035575e-05
-4.0307806e-09
-2.0255792e-05
4.5571343e-09
-1.3727116e-05
8.3365982e-09
-9.0517178e-06
9.056255e-09
-5.9920149e-06
8.1570207e-09
-4.0374954e-06
6.5993847e-09
-2.8076018e-06
5.0322887e-09
-1.9699916e-06
3.748654e-09
-1.3500211e-06
2.7777141e-09
-9.1558812e-07
2.0479938e-09
-6.307256e-07
1.473954e-09
-4.3879756e-07
1.0245919e-09
-3.0310162e-07
6.9402778e-10
-2.0676549e-07
4.6068315e-10
-1.3982747e-07
3.0024115e-10
-9.3847913e-08
1.9279167e-10
-6.2541264e-08
1.2236586e-10
-4.1449622e-08
7.6759733e-11
-2.7345306e-08
4.7373206e-11
-1.7935113e-08
2.8581323e-11
-1.1660557e-08
1.6676529e-11
-7.4822315e-09
9.2714188e-12
-4.7084563e-09
4.7862053e-12
-2.8771988e-09
2.1864751e-12
-1.6784289e-09
7.9423967e-13
-9.0338953e-10
1.6259977e-13
-4.1122659e-10
-1.0684545e-10
-1.2234487e-08
-4.3838838e-05
-1.8774249e-08
-3.5873757e-05
-1.4594495e-08
-2.8039754e-05
-4.0909118e-09
-2.0266295e-05
4.551602e-09
-1.3735758e-05
8.3560865e-09
-9.0555223e-06
9.0855791e-09
-5.9927444e-06
8.192887e-09
-4.0366027e-06
6.6318248e-09
-2.8060407e-06
5.0563628e-09
-1.9684162e-06
3.7662369e-09
-1.3487309e-06
2.7903076e-09
-9.1461222e-07
2.057287e-09
-6.2999255e-07
1.4807495e-09
-4.3822105e-07
1.0297713e-09
-3.0265062e-07
6.978354e-10
-2.0643359e-07
4.6346811e-10
-1.3959309e-07
3.0226063e-10
-9.3686741e-08
1.9420752e-10
-6.2433209e-08
1.2334142e-10
-4.1378784e-08
7.7414844e-11
-2.7299382e-08
4.7798158e-11
-1.7905516e-08
2.8847106e-11
-1.1641609e-08
1.6833563e-11
-7.470229e-09
9.3584213e-12
-4.7009827e-09
4.8255781e-12
-2.8726717e-09
2.2042622e-12
-1.6758068e-09
8.0048909e-13
-9.0198631e-10
1.6446523e-13
-4.1059096e-10
-1.0668098e-10
-1.2252137e-08
-4.3826586e-05
-1.8816331e-08
-3.5867193e-05
-1.4676773e-08
-2.8043894e-05
-4.1609348e-09
-2.0276811e-05
4.5274811e-09
-1.3744447e-05
8.3574124e-09
-9.0593522e-06
9.0985754e-09
-5.9934856e-06
8.2148352e-09
-4.035719e-06
6.6527358e-09
-2.8044786e-06
5.0709984e-09
-1.9668345e-06
3.7766447e-09
-1.3474365e-06
2.7975425e-09
-9.1363314e-07
2.0622724e-09
-6.2925726e-07
1.4843532e-09
-4.3764315e-07
1.032507e-09
-3.0219876e-07
6.9987142e-10
-2.0610097e-07
4.6497537e-10
-1.3935817e-07
3.033453e-10
-9.3525127e-08
1.9499472e-10
-6.2324845e-08
1.2391092e-10
-4.1307715e-08
7.780985e-11
-2.7253275e-08
4.8071019e-11
-1.7875789e-08
2.9031738e-11
-1.1622571e-08
1.6957698e-11
-7.4581657e-09
9.4376984e-12
-4.6934697e-09
4.8770851e-12
-2.8681192e-09
2.2308303e-12
-1.6731694e-09
8.1094e-13
-9.0057485e-10
1.65481e-13
-4.0995148e-10
-1.065155e-10
-1.2264258e-08
-4.3814322e-05
-1.8853851e-08
-3.5860604e-05
-1.4761566e-08
-2.8047986e-05
-4.2385825e-09
-2.0287334e-05
4.4903894e-09
-1.3753176e-05
8.3460529e-09
-9.0632079e-06
9.1012322e-09
-5.9942407e-06
8.227612e-09
-4.0348454e-06
6.6659351e-09
-2.8029169e-06
5.0791275e-09
-1.9652477e-06
3.7820321e-09
-1.3461394e-06
2.8010726e-09
-9.126522e-07
2.0644509e-09
-6.2852062e-07
1.4859056e-09
-4.3706463e-07
1.0334891e-09
-3.0174632e-07
7.0066302e-10
-2.0576816e-07
4.6557261e-10
-1.3912306e-07
3.0379899e-10
-9.3363372e-08
1.9534972e-10
-6.2216384e-08
1.2417439e-10
-4.1236557e-08
7.7993804e-11
-2.7207091e-08
4.8188887e-11
-1.7846001e-08
2.91025e-11
-1.1603487e-08
1.6993779e-11
-7.4460698e-09
9.4545738e-12
-4.6859348e-09
4.8802262e-12
-2.8635526e-09
2.2307263e-12
-1.6705234e-09
8.1063573e-13
-8.9915861e-10
1.6608393e-13
-4.0930966e-10
-1.0634942e-10
-1.2274061e-08
-4.3802048e-05
-1.8890204e-08
-3.5853988e-05
-1.4850024e-08
-2.8052026e-05
-4.3216772e-09
-2.0297862e-05
4.4443828e-09
-1.3761942e-05
8.3263693e-09
-9.0670899e-06
9.0962338e-09
-5.9950106e-06
8.2338965e-09
-4.033983e-06
6.6736645e-09
-2.8013566e-06
5.0826303e-09
-1.9636567e-06
3.7837761e-09
-1.3448406e-06
2.8018109e-09
-9.1167025e-07
2.0647118e-09
-6.277835e-07
1.4858592e-09
-4.3648579e-07
1.0335457e-09
-3.0129398e-07
7.0071994e-10
-2.0543536e-07
4.656589e-10
-1.3888799e-07
3.0392873e-10
-9.320166e-08
1.9546604e-10
-6.2107912e-08
1.2426459e-10
-4.1165372e-08
7.806418e-11
-2.7160888e-08
4.8241178e-11
-1.7816189e-08
2.9135825e-11
-1.1584382e-08
1.7015972e-11
-7.4339573e-09
9.4669216e-12
-4.678388e-09
4.8897442e-12
-2.8589785e-09
2.2347255e-12
-1.6678726e-09
8.1211714e-13
-8.9773963e-10
1.6642418e-13
-4.0866655e-10
-1.0618299e-10
-1.2282775e-08
-4.3789765e-05
-1.8926846e-08
-3.5847344e-05
-1.4941653e-08
-2.8056012e-05
-4.4101165e-09
-2.0308394e-05
4.3913366e-09
-1.3770743e-05
8.3006174e-09
-9.0709992e-06
9.0855939e-09
-5.9957956e-06
8.2355541e-09
-4.033133e-06
6.6774983e-09
-2.7997985e-06
5.0829319e-09
-1.9620621e-06
3.7831548e-09
-1.3435408e-06
2.8007228e-09
-9.1068783e-07
2.0635579e-09
-6.2704631e-07
1.4848216e-09
-4.3590707e-07
1.0328556e-09
-3.00842e-07
7.0026652e-10
-2.0510278e-07
4.6540503e-10
-1.3865311e-07
3.0379635e-10
-9.3040072e-08
1.9540441e-10
-6.1999514e-08
1.2424337e-10
-4.1094228e-08
7.8058024e-11
-2.7114701e-08
4.8239193e-11
-1.7786383e-08
2.9132885e-11
-1.1565276e-08
1.7011138e-11
-7.4218427e-09
9.4609032e-12
-4.6708383e-09
4.8806931e-12
-2.8544021e-09
2.2297992e-12
-1.6652205e-09
8.0996638e-13
-8.9631968e-10
1.6654724e-13
-4.0802304e-10
-1.0601645e-10
-1.2290809e-08
-4.3777474e-05
-1.8964997e-08
-3.5840669e-05
-1.5036968e-08
-2.805994e-05
-4.5020754e-09
-2.0318929e-05
4.3331042e-09
-1.3779578e-05
8.2701098e-09
-9.0749362e-06
9.0713272e-09
-5.9965968e-06
8.2338791e-09
-4.0322956e-06
6.6784822e-09
-2.7982431e-06
5.0809939e-09
-1.9604646e-06
3.781008e-09
-1.3422408e-06
2.798572e-09
-9.0970541e-07
2.061411e-09
-6.2630913e-07
1.483101e-09
-4.3532877e-07
1.0313938e-09
-3.0039027e-07
6.9928217e-10
-2.0477069e-07
4.6474987e-10
-1.3841856e-07
3.0337612e-10
-9.287871e-08
1.9517527e-10
-6.18913e-08
1.2413389e-10
-4.1023199e-08
7.8008852e-11
-2.706857e-08
4.8225281e-11
-1.7756609e-08
2.913886e-11
-1.154619e-08
1.7026214e-11
-7.4097387e-09
9.4774754e-12
-4.6632944e-09
4.8976216e-12
-2.8498285e-09
2.2400044e-12
-1.6625697e-09
8.1424132e-13
-8.9490035e-10
1.6648345e-13
-4.0737985e-10
-1.0584996e-10
-1.2298643e-08
-4.3765175e-05
-1.9004962e-08
-3.5833963e-05
-1.5134119e-08
-2.806381e-05
-4.5973957e-09
-2.0329466e-05
4.2711262e-09
-1.3788447e-05
8.2366997e-09
-9.0789018e-06
9.0540307e-09
-5.9974141e-06
8.229133e-09
-4.0314707e-06
6.6769075e-09
-2.7966909e-06
5.0771487e-09
-1.9588649e-06
3.7774359e-09
-1.340941e-06
2.7953497e-09
-9.0872333e-07
2.0585384e-09
-6.255723e-07
1.480711e-09
-4.3475096e-07
1.0296728e-09
-2.9993921e-07
6.9803615e-10
-2.0443906e-07
4.6389019e-10
-1.381844e-07
3.0283394e-10
-9.2717667e-08
1.9484492e-10
-6.1783301e-08
1.2393655e-10
-4.0952303e-08
7.789001e-11
-2.702252e-08
4.8150563e-11
-1.7726881e-08
2.9089931e-11
-1.152713e-08
1.6992374e-11
-7.39765e-09
9.4550235e-12
-4.6557595e-09
4.8807244e-12
-2.8452596e-09
2.2307115e-12
-1.6599212e-09
8.1058684e-13
-8.9348234e-10
1.6637081e-13
-4.0673714e-10
-1.0568359e-10
-1.2306665e-08
-4.3752869e-05
-1.904646e-08
-3.5827223e-05
-1.5232869e-08
-2.8067624e-05
-4.6945435e-09
-2.0340004e-05
4.2061037e-09
-1.3797348e-05
8.2009196e-09
-9.0828966e-06
9.0348857e-09
-5.998248e-06
8.221996e-09
-4.0306578e-06
6.6733014e-09
-2.7951422e-06
5.0721259e-09
-1.9572637e-06
3.7729909e-09
-1.3396419e-06
2.7914735e-09
-9.0774182e-07
2.055343e-09
-6.2483615e-07
1.4781064e-09
-4.3417373e-07
1.0278266e-09
-2.9948892e-07
6.9672248e-10
-2.0410797e-07
4.6301089e-10
-1.3795067e-07
3.0227767e-10
-9.2556947e-08
1.9448412e-10
-6.16755e-08
1.2370577e-10
-4.0881536e-08
7.7749675e-11
-2.6976562e-08
4.8067593e-11
-1.7697207e-08
2.9039888e-11
-1.1508102e-08
1.6964783e-11
-7.38558e-09
9.4400098e-12
-4.648236e-09
4.876057e-12
-2.8406976e-09
2.228446e-12
-1.6572766e-09
8.0990103e-13
-8.9206634e-10
1.6615936e-13
-4.060952e-10
-1.0551743e-10
-1.231475e-08
-4.3740554e-05
-1.9088512e-08
-3.5820449e-05
-1.5332927e-08
-2.807138e-05
-4.7938617e-09
-2.0350543e-05
4.138856e-09
-1.380628e-05
8.1633035e-09
-9.086921e-06
9.0143548e-09
-5.9990991e-06
8.2131211e-09
-4.0298566e-06
6.6682249e-09
-2.7935973e-06
5.0664225e-09
-1.9556619e-06
3.7680878e-09
-1.3383435e-06
2.7872983e-09
-9.0676104e-07
2.0518159e-09
-6.2410065e-07
1.4753357e-09
-4.3359726e-07
1.0256061e-09
-2.9903917e-07
6.9520187e-10
-2.0377758e-07
4.6199217e-10
-1.3771745e-07
3.0159352e-10
-9.2396564e-08
1.9405087e-10
-6.1567953e-08
1.2343679e-10
-4.0810935e-08
7.7580206e-11
-2.6930704e-08
4.7962345e-11
-1.7667598e-08
2.8972394e-11
-1.1489112e-08
1.6921911e-11
-7.3735339e-09
9.4123551e-12
-4.6407266e-09
4.8567945e-12
-2.8361443e-09
2.2188203e-12
-1.6546371e-09
8.0609174e-13
-8.9065289e-10
1.6585342e-13
-4.0545445e-10
-1.0535158e-10
-1.2322857e-08
-4.3728231e-05
-1.9130606e-08
-3.5813642e-05
-1.5434118e-08
-2.8075076e-05
-4.8944119e-09
-2.0361083e-05
4.0697304e-09
-1.3815244e-05
8.1246057e-09
-9.0909759e-06
8.9923574e-09
-5.9999668e-06
8.2027979e-09
-4.029067e-06
6.6619568e-09
-2.7920564e-06
5.0599421e-09
-1.9540599e-06
3.7627194e-09
-1.3370463e-06
2.7827807e-09
-9.0578111e-07
2.0478839e-09
-6.2336574e-07
1.4722297e-09
-4.3302162e-07
1.0233583e-09
-2.9859029e-07
6.9360204e-10
-2.0344783e-07
4.6089335e-10
-1.3748473e-07
3.0089125e-10
-9.2236572e-08
1.936375e-10
-6.146069e-08
1.2320627e-10
-4.0740515e-08
7.7455337e-11
-2.6884949e-08
4.7899899e-11
-1.7638053e-08
2.8950549e-11
-1.1470164e-08
1.6920132e-11
-7.3615124e-09
9.4201304e-12
-4.6332314e-09
4.8689443e-12
-2.8315992e-09
2.2272424e-12
-1.6520022e-09
8.0972517e-13
-8.8924185e-10
1.6556296e-13
-4.0481488e-10
-1.0518602e-10
-1.2331426e-08
-4.37159e-05
-1.9172993e-08
-3.58068e-05
-1.5535854e-08
-2.8078713e-05
-4.9958993e-09
-2.0371623e-05
3.999413e-09
-1.382424e-05
8.0848173e-09
-9.0950613e-06
8.9698698e-09
-6.0008519e-06
8.1914217e-09
-4.0282886e-06
6.654699e-09
-2.7905197e-06
5.052696e-09
-1.9524579e-06
3.7568574e-09
-1.3357504e-06
2.777888e-09
-9.0480215e-07
2.0438439e-09
-6.2263169e-07
1.4689548e-09
-4.3244674e-07
1.0210115e-09
-2.9814233e-07
6.9190366e-10
-2.0311873e-07
4.5972788e-10
-1.3725254e-07
3.0013672e-10
-9.2076991e-08
1.9315033e-10
-6.1353695e-08
1.2289792e-10
-4.0670273e-08
7.7259406e-11
-2.6839308e-08
4.7773586e-11
-1.7608577e-08
2.8867514e-11
-1.1451259e-08
1.6865515e-11
-7.349518e-09
9.3849926e-12
-4.6257531e-09
4.844692e-12
-2.8270636e-09
2.2142724e-12
-1.6493728e-09
8.0458394e-13
-8.8783365e-10
1.6524731e-13
-4.041766e-10
-1.0502077e-10
-1.2340731e-08
-4.3703559e-05
-1.9215801e-08
-3.5799925e-05
-1.5637033e-08
-2.8082292e-05
-5.0980047e-09
-2.0382162e-05
3.928043e-09
-1.3833266e-05
8.0446231e-09
-9.0991779e-06
8.9469418e-09
-6.0017542e-06
8.1786719e-09
-4.0275203e-06
6.6462816e-09
-2.7889873e-06
5.0448465e-09
-1.9508565e-06
3.7506392e-09
-1.3344562e-06
2.7727725e-09
-9.0382429e-07
2.03974e-09
-6.2189864e-07
1.4657408e-09
-4.3187274e-07
1.0184819e-09
-2.9769506e-07
6.9016117e-10
-2.0279042e-07
4.5856182e-10
-1.3702094e-07
2.9936504e-10
-9.1917804e-08
1.9264558e-10
-6.124697e-08
1.2257281e-10
-4.060021e-08
7.7059148e-11
-2.6793792e-08
4.7652937e-11
-1.7579178e-08
2.8795337e-11
-1.1432401e-08
1.6825451e-11
-7.3375527e-09
9.3641721e-12
-4.6182931e-09
4.8377663e-12
-2.822539e-09
2.2111786e-12
-1.6467494e-09
8.0367054e-13
-8.8642882e-10
1.6488797e-13
-4.0353972e-10
-1.0485588e-10
-1.2350473e-08
-4.3691209e-05
-1.9258522e-08
-3.5793017e-05
-1.5738684e-08
-2.8085812e-05
-5.2003264e-09
-2.03927e-05
3.8561684e-09
-1.3842322e-05
8.0044246e-09
-9.1033262e-06
8.9239587e-09
-6.0026737e-06
8.1646506e-09
-4.026761e-06
6.6367697e-09
-2.7874594e-06
5.0366531e-09
-1.9492564e-06
3.7441952e-09
-1.3331638e-06
2.7674767e-09
-9.0284757e-07
2.0352654e-09
-6.2116642e-07
1.4622569e-09
-4.3129974e-07
1.0159271e-09
-2.9724872e-07
6.8834851e-10
-2.0246285e-07
4.5730875e-10
-1.3678989e-07
2.9852841e-10
-9.1759033e-08
1.9211895e-10
-6.1140556e-08
1.2224527e-10
-4.0530343e-08
7.6852137e-11
-2.6748397e-08
4.7524676e-11
-1.7549855e-08
2.8712682e-11
-1.1413588e-08
1.6772786e-11
-7.325615e-09
9.3300425e-12
-4.6108496e-09
4.8143931e-12
-2.8180245e-09
2.1992962e-12
-1.6441318e-09
7.9905242e-13
-8.8502702e-10
1.6454534e-13
-4.0290411e-10
-1.0469134e-10
-1.2360594e-08
-4.3678848e-05
-1.9300299e-08
-3.5786077e-05
-1.5840191e-08
-2.8089272e-05
-5.3034456e-09
-2.0403237e-05
3.7832672e-09
-1.3851409e-05
7.9635896e-09
-9.1075065e-06
8.9012234e-09
-6.0036113e-06
8.1497794e-09
-4.0260095e-06
6.6263765e-09
-2.785936e-06
5.0283414e-09
-1.9476583e-06
3.7376092e-09
-1.331873e-06
2.7620672e-09
-9.0187204e-07
2.0307289e-09
-6.2043507e-07
1.4586057e-09
-4.3072762e-07
1.0133138e-09
-2.9680342e-07
6.8645836e-10
-2.02136e-07
4.5601325e-10
-1.3655943e-07
2.9770115e-10
-9.1600729e-08
1.9161546e-10
-6.1034463e-08
1.2195285e-10
-4.046069e-08
7.6684677e-11
-2.6703126e-08
4.7433943e-11
-1.7520612e-08
2.8671793e-11
-1.1394826e-08
1.6758477e-11
-7.3137085e-09
9.3298118e-12
-4.6034244e-09
4.8220057e-12
-2.8135212e-09
2.2053832e-12
-1.6415207e-09
8.0179934e-13
-8.8362854e-10
1.6413711e-13
-4.0227007e-10
-1.045272e-10
-1.2371217e-08
-4.3666477e-05
-1.9341356e-08
-3.5779107e-05
-1.5941876e-08
-2.8092671e-05
-5.4066129e-09
-2.0413772e-05
3.7097875e-09
-1.3860525e-05
7.9227123e-09
-9.1117194e-06
8.8780351e-09
-6.0045667e-06
8.1341651e-09
-4.0252657e-06
6.6150607e-09
-2.7844169e-06
5.0197405e-09
-1.946063e-06
3.7308301e-09
-1.3305841e-06
2.7565079e-09
-9.0089772e-07
2.0262438e-09
-6.197048e-07
1.4550575e-09
-4.3015644e-07
1.0105277e-09
-2.9635888e-07
6.8449574e-10
-2.0180998e-07
4.546686e-10
-1.363296e-07
2.9680432e-10
-9.1442871e-08
1.910187e-10
-6.0928671e-08
1.2156636e-10
-4.0391244e-08
7.6434984e-11
-2.6657992e-08
4.7272093e-11
-1.7491455e-08
2.8566112e-11
-1.1376121e-08
1.669076e-11
-7.3018376e-09
9.2867269e-12
-4.5960213e-09
4.7934336e-12
-2.8090308e-09
2.1904363e-12
-1.6389171e-09
7.9585094e-13
-8.82234e-10
1.6366996e-13
-4.0163792e-10
-1.0436353e-10
-1.2381874e-08
-4.3654095e-05
-1.9382319e-08
-3.5772107e-05
-1.6042998e-08
-2.8096011e-05
-5.5105189e-09
-2.0424304e-05
3.6355361e-09
-1.3869671e-05
7.8812011e-09
-9.1159651e-06
8.8545825e-09
-6.00554e-06
8.1183198e-09
-4.0245294e-06
6.6032061e-09
-2.7829018e-06
5.010972e-09
-1.9444708e-06
3.7240466e-09
-1.3292972e-06
2.7509969e-09
-8.9992467e-07
2.0217619e-09
-6.1897556e-07
1.451586e-09
-4.2958627e-07
1.007957e-09
-2.9591524e-07
6.826877e-10
-2.0148471e-07
4.5343613e-10
-1.3610034e-07
2.9598105e-10
-9.1285422e-08
1.9048963e-10
-6.0823176e-08
1.2123039e-10
-4.032199e-08
7.6232367e-11
-2.6612992e-08
4.7152295e-11
-1.7462379e-08
2.8497091e-11
-1.1357465e-08
1.6653869e-11
-7.2899972e-09
9.2691993e-12
-4.5886372e-09
4.7885904e-12
-2.8045512e-09
2.1886623e-12
-1.6363196e-09
7.954151e-13
-8.8084273e-10
1.6331166e-13
-4.0100722e-10
-1.0420022e-10
-1.2391635e-08
-4.3641703e-05
-1.9424004e-08
-3.5765074e-05
-1.6144256e-08
-2.8099291e-05
-5.6146429e-09
-2.0434834e-05
3.5602571e-09
-1.3878846e-05
7.8392217e-09
-9.120244e-06
8.8309185e-09
-6.0065317e-06
8.10223e-09
-4.0238007e-06
6.5910825e-09
-2.7813906e-06
5.0021689e-09
-1.9428819e-06
3.717298e-09
-1.3280123e-06
2.7455279e-09
-8.989529e-07
2.0171461e-09
-6.1824717e-07
1.4479055e-09
-4.2901703e-07
1.0053256e-09
-2.9547265e-07
6.8077825e-10
-2.0116017e-07
4.5210862e-10
-1.3587166e-07
2.9510631e-10
-9.1128425e-08
1.8993911e-10
-6.0718005e-08
1.208869e-10
-4.0252942e-08
7.6015087e-11
-2.6568119e-08
4.7018074e-11
-1.7433384e-08
2.8410861e-11
-1.1338857e-08
1.6599604e-11
-7.2781863e-09
9.2346063e-12
-4.5812712e-09
4.7657919e-12
-2.8000826e-09
2.177006e-12
-1.6337281e-09
7.9094943e-13
-8.7945474e-10
1.6296021e-13
-4.0037786e-10
-1.0403726e-10
-1.2400914e-08
-4.3629302e-05
-1.9466204e-08
-3.5758009e-05
-1.6246292e-08
-2.810251e-05
-5.7199304e-09
-2.044536e-05
3.4842777e-09
-1.3888051e-05
7.7970304e-09
-9.1245568e-06
8.8069683e-09
-6.0075417e-06
8.0860041e-09
-4.0230798e-06
6.5789559e-09
-2.7798836e-06
4.9933351e-09
-1.9412963e-06
3.7104896e-09
-1.3267294e-06
2.7400002e-09
-8.9798242e-07
2.0126293e-09
-6.1751979e-07
1.4443363e-09
-4.2844875e-07
1.0025842e-09
-2.9503089e-07
6.7885691e-10
-2.0083645e-07
4.5080499e-10
-1.356436e-07
2.9426651e-10
-9.0971895e-08
1.89419e-10
-6.0613154e-08
1.2057833e-10
-4.0184111e-08
7.5835841e-11
-2.6523375e-08
4.691839e-11
-1.7404476e-08
2.8364721e-11
-1.1320305e-08
1.6581201e-11
-7.2664102e-09
9.2326678e-12
-4.5739266e-09
4.7728264e-12
-2.7956274e-09
2.1831585e-12
-1.6311445e-09
7.9387689e-13
-8.7807094e-10
1.624658e-13
-3.9975034e-10
-1.0387479e-10
-1.2410592e-08
-4.3616892e-05
-1.9508685e-08
-3.5750911e-05
-1.6348843e-08
-2.810567e-05
-5.8257615e-09
-2.0455884e-05
3.4069991e-09
-1.3897283e-05
7.7540081e-09
-9.1289038e-06
8.7830495e-09
-6.0085707e-06
8.0700141e-09
-4.0223667e-06
6.5670216e-09
-2.7783806e-06
4.9844489e-09
-1.9397137e-06
3.7035316e-09
-1.3254485e-06
2.7343549e-09
-8.9701325e-07
2.0081254e-09
-6.1679356e-07
1.4408209e-09
-4.2788144e-07
9.9992721e-10
-2.9458999e-07
6.7698094e-10
-2.0051351e-07
4.4952477e-10
-1.3541614e-07
2.9340292e-10
-9.0815779e-08
1.8884209e-10
-6.0508588e-08
1.2020377e-10
-4.0115478e-08
7.5592193e-11
-2.6478762e-08
4.6759487e-11
-1.7375648e-08
2.8259643e-11
-1.1301806e-08
1.6513374e-11
-7.2546678e-09
9.1880321e-12
-4.5666021e-09
4.7424648e-12
-2.7911844e-09
2.1671174e-12
-1.628568e-09
7.8745218e-13
-8.7669085e-10
1.6200776e-13
-3.9912459e-10
-1.0371278e-10
-1.2420625e-08
-4.3604471e-05
-1.9551504e-08
-3.574378e-05
-1.6451567e-08
-2.810877e-05
-5.932076e-09
-2.0466403e-05
3.3293898e-09
-1.3906545e-05
7.7108733e-09
-9.1332853e-06
8.7586652e-09
-6.0096185e-06
8.0540487e-09
-4.0216621e-06
6.5551485e-09
-2.7768817e-06
4.9754871e-09
-1.938134e-06
3.6966044e-09
-1.3241696e-06
2.7287972e-09
-8.9604544e-07
2.0035592e-09
-6.1606831e-07
1.4372574e-09
-4.2731515e-07
9.9741756e-10
-2.9415015e-07
6.7519467e-10
-2.0019129e-07
4.4830637e-10
-1.3518925e-07
2.9260584e-10
-9.0660084e-08
1.8834311e-10
-6.0404323e-08
1.1989206e-10
-4.0047032e-08
7.5408016e-11
-2.6434277e-08
4.6652421e-11
-1.7346897e-08
2.8200234e-11
-1.1283353e-08
1.6483355e-11
-7.2429537e-09
9.1753738e-12
-4.5592949e-09
4.7409374e-12
-2.786751e-09
2.167198e-12
-1.6259971e-09
7.8766609e-13
-8.753136e-10
1.6167587e-13
-3.9850022e-10
-1.0355111e-10
-1.2430898e-08
-4.359204e-05
-1.9594845e-08
-3.5736616e-05
-1.6553324e-08
-2.8111812e-05
-6.0387726e-09
-2.0476918e-05
3.2506905e-09
-1.3915834e-05
7.6673677e-09
-9.137702e-06
8.7342764e-09
-6.0106854e-06
8.0379847e-09
-4.0209658e-06
6.5432177e-09
-2.7753869e-06
4.9664237e-09
-1.9365572e-06
3.689706e-09
-1.3228929e-06
2.7232465e-09
-8.9507898e-07
1.9989043e-09
-6.1534397e-07
1.4335345e-09
-4.2674978e-07
9.945784e-10
-2.9371119e-07
6.7316559e-10
-1.9986988e-07
4.4689513e-10
-1.3496297e-07
2.9167594e-10
-9.0504867e-08
1.8774945e-10
-6.0300392e-08
1.1951637e-10
-3.99788e-08
7.516707e-11
-2.6389925e-08
4.6501185e-11
-1.7318231e-08
2.8101552e-11
-1.1264952e-08
1.6420612e-11
-7.2312719e-09
9.1353645e-12
-4.5520081e-09
4.7142267e-12
-2.7823295e-09
2.1533288e-12
-1.6234328e-09
7.8224165e-13
-8.7393996e-10
1.6127358e-13
-3.9787744e-10
-1.0338984e-10
-1.2441188e-08
-4.3579599e-05
-1.9637906e-08
-3.5729419e-05
-1.6655633e-08
-2.8114794e-05
-6.1457832e-09
-2.0487427e-05
3.1715702e-09
-1.3925152e-05
7.6235582e-09
-9.142154e-06
8.7099849e-09
-6.0117718e-06
8.021699e-09
-4.0202775e-06
6.5311452e-09
-2.7738963e-06
4.9572279e-09
-1.9349833e-06
3.6827153e-09
-1.3216184e-06
2.7175951e-09
-8.9411387e-07
1.9943443e-09
-6.1462071e-07
1.4299547e-09
-4.2618539e-07
9.9182284e-10
-2.9327305e-07
6.7122639e-10
-1.9954929e-07
4.4559207e-10
-1.3473734e-07
2.9082776e-10
-9.0350111e-08
1.8721945e-10
-6.0196783e-08
1.1920246e-10
-3.9910792e-08
7.4985385e-11
-2.6345708e-08
4.6401385e-11
-1.7289655e-08
2.8055806e-11
-1.1246608e-08
1.6402719e-11
-7.2196255e-09
9.134239e-12
-4.5447434e-09
4.7224347e-12
-2.7779218e-09
2.1600609e-12
-1.6208763e-09
7.854765e-13
-8.7257057e-10
1.6080102e-13
-3.9725645e-10
-1.0322903e-10
-1.2451485e-08
-4.3567148e-05
-1.9680049e-08
-3.5722191e-05
-1.6758039e-08
-2.8117716e-05
-6.2536209e-09
-2.0497932e-05
3.0914735e-09
-1.3934497e-05
7.5796275e-09
-9.1466421e-06
8.6853233e-09
-6.0128775e-06
8.0053479e-09
-4.0195976e-06
6.5190607e-09
-2.7724101e-06
4.9480165e-09
-1.9334123e-06
3.6756502e-09
-1.320346e-06
2.7118905e-09
-8.9315011e-07
1.989761e-09
-6.1389858e-07
1.4263903e-09
-4.2562202e-07
9.8929243e-10
-2.9283595e-07
6.6941378e-10
-1.9922941e-07
4.4433768e-10
-1.3451226e-07
2.899773e-10
-9.0195755e-08
1.8665313e-10
-6.0093456e-08
1.1883571e-10
-3.9842979e-08
7.4746526e-11
-2.6301619e-08
4.6246053e-11
-1.7261158e-08
2.7952193e-11
-1.1228315e-08
1.6335172e-11
-7.2080108e-09
9.0889334e-12
-4.5374974e-09
4.6911781e-12
-2.7735257e-09
2.1434422e-12
-1.6183265e-09
7.7889881e-13
-8.7120475e-10
1.6038079e-13
-3.9663703e-10
-1.0306865e-10
-1.2461996e-08
-4.3554686e-05
-1.9721705e-08
-3.5714931e-05
-1.6860271e-08
-2.8120577e-05
-6.3614941e-09
-2.0508431e-05
3.0106836e-09
-1.3943869e-05
7.5349859e-09
-9.1511664e-06
8.6606666e-09
-6.0140032e-06
7.9892728e-09
-4.0189262e-06
6.5071685e-09
-2.7709279e-06
4.9391165e-09
-1.9318442e-06
3.6688316e-09
-1.3190757e-06
2.7064828e-09
-8.9218776e-07
1.9852852e-09
-6.1317738e-07
1.4228298e-09
-4.2505957e-07
9.8665623e-10
-2.9239978e-07
6.6754236e-10
-1.989103e-07
4.4305605e-10
-1.3428777e-07
2.8914736e-10
-9.004185e-08
1.8613674e-10
-5.9990445e-08
1.1851245e-10
-3.9775358e-08
7.455542e-11
-2.6257661e-08
4.6134612e-11
-1.723274e-08
2.7891755e-11
-1.1210072e-08
1.6305604e-11
-7.1964269e-09
9.0769169e-12
-4.5302697e-09
4.6905856e-12
-2.7691402e-09
2.1443349e-12
-1.6157831e-09
7.7945955e-13
-8.6984211e-10
1.5998416e-13
-3.9601914e-10
-1.0290867e-10
-1.2472802e-08
-4.3542213e-05
-1.9763325e-08
-3.5707641e-05
-1.6961349e-08
-2.8123379e-05
-6.4697345e-09
-2.0518922e-05
2.9294541e-09
-1.3953268e-05
7.4904462e-09
-9.1557274e-06
8.6357061e-09
-6.0151485e-06
7.9730327e-09
-4.0182635e-06
6.4951195e-09
-2.76945e-06
4.9302981e-09
-1.9302794e-06
3.6621248e-09
-1.3178076e-06
2.7011161e-09
-8.9122675e-07
1.9808185e-09
-6.1245708e-07
1.4192768e-09
-4.2449803e-07
9.8382016e-10
-2.9196432e-07
6.6551268e-10
-1.98592e-07
4.4164818e-10
-1.340639e-07
2.8821026e-10
-8.9888414e-08
1.8553072e-10
-5.9887763e-08
1.1812533e-10
-3.9707953e-08
7.4306049e-11
-2.6213841e-08
4.5976872e-11
-1.7204409e-08
2.7788498e-11
-1.1191883e-08
1.6240238e-11
-7.1848772e-09
9.0354628e-12
-4.5230635e-09
4.6629725e-12
-2.7647671e-09
2.1299941e-12
-1.6132467e-09
7.7375028e-13
-8.6848319e-10
1.5954464e-13
-3.9540304e-10
-1.0274913e-10
-1.248384e-08
-4.3529729e-05
-1.9804319e-08
-3.570032e-05
-1.7061924e-08
-2.8126122e-05
-6.5779057e-09
-2.0529406e-05
2.8472968e-09
-1.3962693e-05
7.4454661e-09
-9.1603256e-06
8.6107846e-09
-6.0163138e-06
7.9565481e-09
-4.0176093e-06
6.4829032e-09
-2.7679764e-06
4.9214186e-09
-1.9287179e-06
3.6554514e-09
-1.3165416e-06
2.695735e-09
-8.9026704e-07
1.9764905e-09
-6.1173784e-07
1.4159113e-09
-4.2393746e-07
9.8145176e-10
-2.9152986e-07
6.638379e-10
-1.9827439e-07
4.4052004e-10
-1.3384059e-07
2.8747172e-10
-8.9735377e-08
1.8507275e-10
-5.9785368e-08
1.1786081e-10
-3.9640753e-08
7.4160057e-11
-2.6170144e-08
4.5901827e-11
-1.7176162e-08
2.7760677e-11
-1.1173746e-08
1.6234528e-11
-7.1733596e-09
9.0434347e-12
-4.5158777e-09
4.6772979e-12
-2.7604062e-09
2.1401393e-12
-1.610717e-09
7.7831658e-13
-8.6712801e-10
1.5913492e-13
-3.9478856e-10
-1.0258999e-10
-1.2495054e-08
-4.3517234e-05
-1.9844224e-08
-3.5692971e-05
-1.716291e-08
-2.8128803e-05
-6.6869312e-09
-2.0539882e-05
2.7646043e-09
-1.3972145e-05
7.4003462e-09
-9.1649613e-06
8.5859543e-09
-6.0174994e-06
7.9400939e-09
-4.0169634e-06
6.47078e-09
-2.7665071e-06
4.9125457e-09
-1.9271597e-06
3.6488428e-09
-1.3152779e-06
2.6904717e-09
-8.8930867e-07
1.9722488e-09
-6.1101961e-07
1.412557e-09
-4.2337777e-07
9.7902713e-10
-2.9109633e-07
6.6209662e-10
-1.9795747e-07
4.3930966e-10
-1.336178e-07
2.8665159e-10
-8.9582725e-08
1.8452324e-10
-5.968324e-08
1.1750075e-10
-3.9573736e-08
7.3920898e-11
-2.6126566e-08
4.5744838e-11
-1.7147991e-08
2.7653048e-11
-1.1155656e-08
1.6162065e-11
-7.1618719e-09
8.9936544e-12
-4.5087104e-09
4.6421534e-12
-2.7560569e-09
2.121101e-12
-1.608194e-09
7.7080333e-13
-8.6577642e-10
1.5873792e-13
-3.9417558e-10
-1.0243125e-10
-1.2506444e-08
-4.3504728e-05
-1.9883538e-08
-3.5685594e-05
-1.7263925e-08