/*--------------------------------*- C++ -*----------------------------------*\
| =========                 |                                                 |
| \\      /  F ield         | OpenFOAM: The Open Source CFD Toolbox           |
|  \\    /   O peration     | Version:  v2012                                 |
|   \\  /    A nd           | Website:  www.openfoam.com                      |
|    \\/     M anipulation  |                                                 |
\*---------------------------------------------------------------------------*/
FoamFile
{
    version     2.0;
    format      ascii;
    class       volScalarField;
    location    "903";
    object      rho;
}
// * * * * * * * * * * * * * * * * * * * * * * * * * * * * * * * * * * * * * //

dimensions      [1 -3 0 0 0 0 0];


internalField   nonuniform List<scalar> 
24000
(
22.0622
21.528848
19.814656
16.610916
12.935043
9.765695
7.4154771
5.770991
4.6933058
3.8958822
3.2054457
2.6740813
2.3191538
2.0730429
1.8851067
1.738381
1.6260902
1.5402242
1.4742415
1.423436
1.3841491
1.3534824
1.329287
1.3100103
1.2945271
1.2820089
1.2718351
1.2635319
1.256733
1.2511512
22.064711
21.534071
19.828074
16.630234
12.952158
9.777356
7.4223823
5.774252
4.6942317
3.8956042
3.2046317
2.673081
2.3180578
2.0718774
1.8839236
1.7372381
1.6250232
1.5392436
1.4733446
1.4226141
1.3833878
1.3527691
1.3286112
1.3093637
1.2939033
1.2814031
1.2712432
1.2629513
1.256161
1.2505864
22.067279
21.539408
19.841691
16.649636
12.969476
9.7888017
7.4288622
5.7769968
4.69468
3.8949654
3.2035415
2.6718549
2.3167975
2.0705877
1.8826377
1.7360173
1.6239022
1.5382207
1.4724134
1.4217629
1.3826014
1.3520335
1.3279148
1.3086975
1.2932606
1.2807787
1.2706332
1.2623526
1.2555714
1.250004
22.069852
21.544759
19.855319
16.669009
12.986793
9.8001149
7.4351661
5.7796401
4.6950704
3.8942642
3.2024183
2.6706445
2.3155933
2.0693675
1.8814449
1.7349257
1.6229281
1.5373531
1.4716356
1.4210561
1.3819489
1.3514212
1.3273327
1.308139
1.2927202
1.280253
1.2701192
1.2618476
1.2550742
1.2495127
22.072427
21.550112
19.868928
16.688367
13.004143
9.8113655
7.4413839
5.7822116
4.6953937
3.8934923
3.2012325
2.6693852
2.3143576
2.0681222
1.8802264
1.7338082
1.6219241
1.5364519
1.4708207
1.4203123
1.3812606
1.3507753
1.3267195
1.3075507
1.2921517
1.2796997
1.2695782
1.2613165
1.2545511
1.2489958
22.075003
21.555455
19.882506
16.707705
13.021532
9.8226001
7.4475661
5.7847539
4.6956822
3.8926777
3.2000092
2.6680985
2.3131036
2.066865
1.8790028
1.7326859
1.6209185
1.5355498
1.4700065
1.4195702
1.3805734
1.3501303
1.3261068
1.306963
1.2915835
1.2791469
1.2690375
1.2607859
1.254028
1.2484791
22.07758
21.560785
19.896045
16.727048
13.038963
9.833837
7.4537357
5.7872869
4.6959488
3.8918315
3.1987578
2.6667902
2.3118331
2.0655967
1.8777688
1.7315569
1.6199061
1.5346416
1.4691878
1.4188233
1.3798821
1.3494814
1.3254902
1.3063715
1.2910117
1.2785906
1.2684936
1.2602518
1.2535017
1.2479594
22.080156
21.566098
19.909547
16.746385
13.056441
9.8450954
7.4599114
5.7898235
4.6962031
3.8909627
3.1974877
2.6654673
2.3105537
2.0643213
1.8765289
1.7304242
1.6188909
1.5337321
1.468367
1.4180746
1.3791897
1.3488313
1.3248725
1.3057788
1.2904386
1.2780332
1.2679485
1.2597165
1.2529744
1.2474385
22.082731
21.571394
19.923003
16.765736
13.073965
9.8563785
7.4660999
5.7923713
4.6964511
3.890077
3.1962046
2.6641348
2.3092681
2.0630413
1.8752891
1.7292892
1.6178749
1.5328217
1.4675453
1.4173255
1.3784967
1.3481809
1.3242545
1.305186
1.2898652
1.2774752
1.267403
1.2591806
1.2524468
1.2469171
22.085306
21.576672
19.936418
16.785092
13.091539
9.8676977
7.4723065
5.7949343
4.6966968
3.8891779
3.1949129
2.6627965
2.3079781
2.0617603
1.8740472
1.7281548
1.6168592
1.5319113
1.4667247
1.4165774
1.3778038
1.3475306
1.3236368
1.3045933
1.2892922
1.2769174
1.2668575
1.2586451
1.2519191
1.2463956
22.08788
21.581933
19.949788
16.804463
13.109158
9.8790511
7.4785382
5.7975154
4.6969432
3.8882675
3.1936152
2.661455
2.3066864
2.0604788
1.8728048
1.7270216
1.6158444
1.5310024
1.4659054
1.4158302
1.3771123
1.3468813
1.3230198
1.3040014
1.2887198
1.2763606
1.2663128
1.2581104
1.2513919
1.245875
22.090454
21.587179
19.96312
16.823848
13.126829
9.8904476
7.4847939
5.8001175
4.6971921
3.8873476
3.1923136
2.6601118
2.3053954
2.0591974
1.8715664
1.7258893
1.6148315
1.5300956
1.465087
1.4150839
1.3764222
1.3462333
1.322404
1.3034103
1.2881484
1.2758047
1.2657691
1.2575765
1.2508659
1.2453554
22.093027
21.592408
19.976406
16.843246
13.144546
9.9018834
7.4910768
5.8027424
4.6974449
3.8864196
3.1910101
2.6587683
2.3041047
2.0579183
1.8703287
1.7247598
1.6138208
1.5291901
1.4642705
1.4143395
1.3757333
1.3455867
1.3217895
1.3028208
1.287578
1.2752498
1.2652266
1.2570435
1.250341
1.2448368
22.095599
21.597618
19.989652
16.862663
13.162314
9.9133663
7.4973902
5.8053912
4.6977027
3.8854846
3.1897061
2.6574252
2.3028142
2.0566409
1.8690922
1.7236332
1.6128125
1.5282869
1.4634568
1.4135975
1.3750459
1.3449414
1.3211765
1.3022325
1.2870092
1.274696
1.264685
1.2565116
1.2498172
1.2443191
22.098171
21.602808
20.002855
16.882089
13.180129
9.9248917
7.5037311
5.8080635
4.6979662
3.8845441
3.1884024
2.6560836
2.3015264
2.0553657
1.867861
1.7225085
1.6118066
1.5273869
1.4626449
1.4128571
1.3743607
1.3442979
1.320565
1.3016458
1.2864418
1.2741438
1.2641447
1.2559813
1.2492944
1.2438026
22.100743
21.607979
20.01602
16.901538
13.197995
9.9364669
7.5101034
5.8107587
4.6982363
3.8836002
3.1870996
2.6547436
2.300241
2.054093
1.8666316
1.7213872
1.6108039
1.526489
1.4618349
1.4121185
1.3736775
1.3436563
1.3199551
1.3010604
1.2858758
1.2735931
1.2636061
1.2554524
1.248773
1.2432876
22.103315
21.613131
20.029142
16.920996
13.215909
9.9480869
7.5165066
5.8134771
4.6985132
3.8826535
3.1857981
2.6534056
2.2989572
2.0528232
1.8654038
1.7202695
1.6098039
1.5255932
1.4610276
1.4113823
1.372996
1.3430165
1.3193469
1.3004767
1.2853112
1.2730438
1.2630689
1.2549248
1.2482532
1.2427742
22.105889
21.618265
20.042223
16.940474
13.233871
9.9597585
7.5229395
5.8162186
4.6987975
3.8817046
3.184499
2.6520698
2.2976752
2.0515563
1.8641815
1.7191539
1.6088064
1.5247008
1.4602232
1.4106486
1.3723163
1.3423783
1.3187405
1.2998948
1.2847482
1.2724959
1.2625331
1.2543984
1.2477349
1.242262
22.108463
21.623381
20.055261
16.959965
13.251883
9.9714768
7.5294058
5.818983
4.6990893
3.8807537
3.1832027
2.6507368
2.2963969
2.0502917
1.8629616
1.7180417
1.6078124
1.5238111
1.4594206
1.4099168
1.3716388
1.341742
1.3181357
1.2993144
1.284187
1.2719494
1.2619986
1.2538735
1.2472178
1.2417509
22.111036
21.62848
20.068261
16.979471
13.269942
9.983248
7.5359021
5.8217683
4.6993888
3.8798023
3.1819096
2.6494063
2.2951211
2.0490306
1.8617434
1.7169334
1.6068212
1.5229235
1.4586203
1.4091868
1.3709636
1.3411076
1.3175327
1.2987356
1.2836272
1.2714047
1.2614656
1.2533502
1.246702
1.2412412
22.11361
21.633563
20.081219
16.998994
13.288053
9.9950676
7.5424303
5.8245729
4.6996963
3.8788513
3.1806198
2.6480787
2.2938471
2.0477726
1.8605305
1.7158274
1.6058326
1.5220387
1.4578231
1.4084594
1.3702901
1.3404752
1.3169313
1.2981584
1.283069
1.2708615
1.2609344
1.2528285
1.2461876
1.2407333
22.116184
21.63863
20.094135
17.018528
13.306208
10.006941
7.548992
5.8273955
4.7000116
3.8779024
3.1793334
2.6467537
2.2925761
2.0465169
1.8593205
1.7147247
1.6048473
1.5211573
1.4570282
1.4077346
1.3696183
1.3398444
1.3163319
1.297583
1.2825122
1.2703198
1.2604046
1.2523081
1.2456749
1.2402268
22.118757
21.643684
20.107009
17.038081
13.324416
10.018865
7.5555841
5.830235
4.7003347
3.8769577
3.1780511
2.645432
2.2913085
2.0452649
1.8581122
1.713626
1.603865
1.520278
1.4562353
1.4070115
1.3689488
1.3392155
1.3157341
1.2970093
1.2819573
1.2697795
1.2598762
1.251789
1.2451637
1.2397216
22.121332
21.648724
20.119842
17.057642
13.342669
10.030844
7.5622107
5.8330907
4.7006656
3.8760193
3.176773
2.6441132
2.2900434
2.0440159
1.8569087
1.7125297
1.6028854
1.5194011
1.4554448
1.4062903
1.3682816
1.3385885
1.315138
1.2964372
1.2814039
1.2692407
1.259349
1.2512713
1.2446538
1.2392176
22.12391
21.653748
20.132635
17.077222
13.360973
10.042875
7.5688696
5.8359617
4.7010044
3.8750873
3.1754991
2.6427975
2.2887802
2.0427695
1.8557086
1.7114365
1.6019088
1.5185276
1.4546575
1.4055718
1.3676161
1.3379635
1.3145437
1.2958665
1.2808521
1.2687037
1.2588236
1.2507554
1.244145
1.2387149
22.126488
21.658755
20.145386
17.096811
13.379323
10.054962
7.5755614
5.8388482
4.7013511
3.8741611
3.174229
2.6414845
2.2875205
2.0415261
1.8545102
1.7103471
1.6009353
1.5176567
1.4538722
1.4048557
1.3669523
1.3373402
1.313951
1.2952976
1.2803017
1.2681681
1.2582997
1.250241
1.2436378
1.238214
22.129067
21.663744
20.158094
17.116415
13.397721
10.067102
7.582289
5.8417511
4.7017058
3.8732403
3.1729628
2.6401748
2.2862638
2.0402859
1.8533158
1.7092603
1.5999646
1.5167879
1.4530888
1.4041412
1.3662908
1.3367185
1.3133602
1.2947305
1.2797527
1.267634
1.2577774
1.2497277
1.2431322
1.2377145
22.131645
21.668716
20.170759
17.13603
13.416168
10.0793
7.5890488
5.8446711
4.7020685
3.8723249
3.1717009
2.6388681
2.2850092
2.0390486
1.8521254
1.7081763
1.5989963
1.5159217
1.452308
1.4034287
1.3656313
1.3360987
1.3127709
1.2941648
1.2792056
1.2671011
1.2572562
1.2492157
1.2426281
1.2372162
22.134223
21.673672
20.183386
17.155657
13.43466
10.091552
7.5958446
5.8476075
4.7024393
3.8714147
3.1704435
2.6375645
2.283757
2.0378137
1.8509366
1.707096
1.5980314
1.5150589
1.4515302
1.4027187
1.3649737
1.3354809
1.3121833
1.2936007
1.27866
1.2665699
1.2567363
1.2487052
1.2421251
1.2367191
22.136801
21.67861
20.19597
17.175297
13.453203
10.103863
7.6026748
5.8505599
4.7028182
3.8705097
3.1691904
2.6362637
2.2825083
2.0365821
1.8497509
1.7060185
1.5970693
1.514198
1.4507541
1.402011
1.3643176
1.3348647
1.3115972
1.293038
1.2781158
1.2660402
1.2562181
1.2481964
1.2416233
1.2362232
22.139379
21.683533
20.208511
17.194945
13.471788
10.116231
7.6095393
5.8535288
4.7032053
3.8696099
3.1679415
2.6349663
2.2812621
2.0353536
1.84857
1.7049435
1.5961094
1.5133392
1.4499799
1.4013049
1.3636636
1.3342502
1.3110131
1.2924771
1.2775729
1.2655121
1.2557014
1.2476889
1.2411229
1.2357291
22.141958
21.68844
20.221008
17.214606
13.490425
10.128657
7.6164413
5.8565153
4.7036006
3.8687161
3.1666966
2.6336719
2.2800179
2.0341271
1.8473906
1.7038719
1.5951526
1.5124837
1.4492087
1.4006007
1.3630117
1.3336374
1.3104304
1.2919177
1.2770316
1.2649851
1.2551861
1.2471826
1.2406242
1.2352363
22.144536
21.693333
20.233466
17.234274
13.509105
10.141143
7.6233769
5.8595192
4.7040041
3.8678286
3.1654563
2.6323806
2.2787764
2.0329039
1.8462134
1.7028035
1.5941988
1.5116308
1.4484399
1.399899
1.3623616
1.3330264
1.3098494
1.2913599
1.276492
1.2644595
1.254672
1.2466775
1.2401268
1.2347447
22.147114
21.698212
20.245881
17.253954
13.527832
10.153687
7.6303503
5.8625395
4.7044159
3.8669474
3.1642206
2.6310921
2.2775381
2.0316835
1.8450416
1.7017372
1.5932472
1.5107796
1.4476726
1.3991994
1.3617129
1.3324172
1.3092697
1.2908034
1.2759537
1.2639354
1.254159
1.2461738
1.2396304
1.2342541
22.149692
21.70308
20.258254
17.273641
13.546606
10.166294
7.6373593
5.8655768
4.7048362
3.866072
3.1629895
2.6298069
2.276302
2.0304654
1.8438712
1.700674
1.5922982
1.5099308
1.4469074
1.3985013
1.3610663
1.3318094
1.3086918
1.2902484
1.2754168
1.2634129
1.2536478
1.2456717
1.2391353
1.2337648
22.15227
21.707935
20.270582
17.293338
13.565423
10.17896
7.6444044
5.8686319
4.7052648
3.8652022
3.1617626
2.6285246
2.2750676
2.0292498
1.8427023
1.6996142
1.5913522
1.5090854
1.4461452
1.397805
1.3604215
1.3312033
1.3081156
1.2896951
1.2748811
1.2628917
1.2531379
1.2451709
1.2386414
1.2332771
22.154848
21.712775
20.282868
17.313043
13.584289
10.19169
7.6514882
5.8717053
4.7057019
3.8643379
3.1605401
2.6272454
2.2738363
2.0280371
1.841539
1.6985564
1.5904088
1.5082418
1.445385
1.3971112
1.3597787
1.3305989
1.3075408
1.2891432
1.2743471
1.2623717
1.2526294
1.2446712
1.2381493
1.2327908
22.157426
21.717599
20.295115
17.332754
13.603196
10.204481
7.6586072
5.8747958
4.7061476
3.8634792
3.1593222
2.625969
2.2726078
2.026827
1.8403772
1.6975014
1.5894672
1.5073999
1.4446262
1.3964194
1.3591372
1.3299963
1.3069674
1.2885927
1.2738145
1.2618529
1.2521219
1.2441726
1.2376583
1.2323054
22.160004
21.722407
20.307318
17.352475
13.622151
10.217338
7.6657657
5.8779035
4.7066019
3.8626259
3.1581092
2.6246959
2.2713811
2.0256188
1.8392168
1.6964498
1.5885289
1.506561
1.4438696
1.3957291
1.3584975
1.3293951
1.3063955
1.2880434
1.2732834
1.2613358
1.2516156
1.2436754
1.2371683
1.2318211
22.162582
21.7272
20.319476
17.3722
13.641147
10.230257
7.6729606
5.8810294
4.7070648
3.8617783
3.156901
2.6234258
2.2701562
2.0244135
1.838061
1.6954002
1.5875931
1.5057247
1.4431159
1.3950404
1.3578596
1.3287955
1.3058253
1.2874958
1.2727533
1.2608199
1.2511109
1.2431798
1.2366794
1.231338
22.165161
21.731977
20.33159
17.391933
13.660189
10.243244
7.6801938
5.8841742
4.7075363
3.8609371
3.1556975
2.6221588
2.2689345
2.023211
1.8369077
1.6943532
1.5866592
1.5048901
1.442364
1.3943541
1.3572238
1.3281975
1.3052566
1.2869497
1.2722246
1.2603055
1.2506077
1.2426854
1.2361919
1.2308565
22.167742
21.736739
20.343665
17.41167
13.679273
10.256295
7.6874662
5.8873367
4.7080165
3.8601023
3.1544985
2.6208946
2.267715
2.0220101
1.8357555
1.6933093
1.585728
1.5040573
1.4416134
1.3936698
1.3565892
1.327601
1.3046892
1.2864049
1.2716974
1.259792
1.2501055
1.2421919
1.2357058
1.2303762
22.170324
21.741485
20.355698
17.431412
13.698399
10.269415
7.6947754
5.8905169
4.7085055
3.8592739
3.1533043
2.6196335
2.2664971
2.0208117
1.8346068
1.6922678
1.5847996
1.5032279
1.4408651
1.3929869
1.3559562
1.3270063
1.3041232
1.2858614
1.2711716
1.2592798
1.2496044
1.2416996
1.235221
1.229897
22.172906
21.746218
20.367687
17.45116
13.71757
10.282601
7.7021258
5.8937158
4.7090034
3.8584515
3.1521151
2.6183754
2.2652812
2.0196159
1.8334616
1.6912284
1.5838732
1.5024002
1.4401196
1.3923055
1.355325
1.3264128
1.3035587
1.2853191
1.2706471
1.2587691
1.2491044
1.2412085
1.2347371
1.2294186
22.175488
21.750937
20.37963
17.47091
13.736778
10.295858
7.7095128
5.8969341
4.7095102
3.8576351
3.1509309
2.6171202
2.2640681
2.0184222
1.8323173
1.6901918
1.5829488
1.5015742
1.4393756
1.3916264
1.3546958
1.325821
1.3029959
1.2847785
1.2701238
1.2582598
1.248606
1.2407191
1.2342543
1.2289415
22.178069
21.755643
20.391531
17.490666
13.756033
10.309184
7.7169409
5.9001709
4.7100262
3.8568246
3.1497515
2.6158679
2.2628568
2.0172301
1.8311752
1.689158
1.5820274
1.5007504
1.4386329
1.3909493
1.3540678
1.3252305
1.3024342
1.2842391
1.2696015
1.2577516
1.2481089
1.2402307
1.2337726
1.2284657
22.180651
21.760339
20.403394
17.510422
13.775323
10.322581
7.7244072
5.9034259
4.7105514
3.8560199
3.1485768
2.6146184
2.2616468
2.0160405
1.8300376
1.6881259
1.5811083
1.4999297
1.4378926
1.3902736
1.3534413
1.3246419
1.301874
1.2837012
1.269081
1.2572445
1.2476129
1.2397433
1.2332925
1.2279914
22.183233
21.765022
20.415212
17.530183
13.794657
10.336051
7.7319132
5.9067001
4.7110861
3.8552211
3.1474069
2.613372
2.2604389
2.0148533
1.8289008
1.6870964
1.5801907
1.4991103
1.4371548
1.3895992
1.3528165
1.3240544
1.301315
1.2831643
1.2685616
1.2567385
1.2471178
1.2392568
1.2328135
1.2275179
22.185817
21.769695
20.426986
17.549945
13.814029
10.349593
7.7394602
5.9099946
4.7116303
3.8544282
3.1462421
2.6121284
2.2592335
2.0136675
1.8277652
1.68607
1.5792759
1.4982927
1.4364184
1.3889271
1.3521935
1.3234685
1.3007576
1.2826287
1.2680436
1.2562341
1.2466239
1.2387718
1.2323355
1.2270453
22.188404
21.774353
20.438715
17.569708
13.833438
10.363211
7.7470453
5.9133081
4.7121843
3.8536419
3.1450823
2.6108877
2.2580295
2.0124838
1.8266347
1.6850451
1.5783636
1.4974776
1.4356833
1.3882568
1.351572
1.3228839
1.3002016
1.2820947
1.2675264
1.2557309
1.2461314
1.2382881
1.2318583
1.2265737
22.190991
21.778996
20.450403
17.589474
13.852889
10.376902
7.754673
5.9166406
4.7127484
3.8528624
3.1439275
2.6096497
2.2568268
2.0113025
1.8255053
1.6840227
1.577453
1.496665
1.4349506
1.387588
1.3509517
1.3223009
1.2996468
1.2815619
1.2670105
1.2552288
1.2456403
1.2378056
1.2313823
1.2261036
22.193577
21.783625
20.46205
17.60924
13.872372
10.390671
7.7623388
5.9199932
4.7133227
3.8520897
3.1427773
2.6084147
2.2556262
2.0101229
1.8243767
1.683003
1.5765443
1.4958537
1.4342203
1.3869204
1.3503331
1.3217194
1.2990934
1.2810304
1.2664962
1.2547277
1.2451502
1.237324
1.2309079
1.2256348
22.196163
21.788239
20.473655
17.629008
13.891896
10.404518
7.7700471
5.9233669
4.7139076
3.8513238
3.1416316
2.6071825
2.2544277
2.0089447
1.8232521
1.6819853
1.5756386
1.4950441
1.4334913
1.3862549
1.3497162
1.3211391
1.2985412
1.2805
1.2659832
1.2542277
1.2446611
1.2368433
1.2304347
1.225167
22.198749
21.792839
20.485213
17.648775
13.911452
10.418444
7.7777944
5.9267603
4.7145034
3.8505646
3.1404906
2.6059529
2.2532306
2.0077689
1.8221298
1.6809697
1.5747349
1.4942375
1.4327635
1.3855914
1.3491009
1.3205603
1.2979906
1.2799708
1.2654711
1.2537292
1.2441729
1.2363638
1.2299622
1.2246999
22.201335
21.797425
20.496727
17.668542
13.931046
10.43245
7.7855834
5.9301735
4.7151103
3.8498121
3.1393541
2.6047259
2.2520348
2.0065951
1.8210082
1.6799563
1.5738326
1.4934327
1.4320382
1.3849292
1.3484868
1.3199828
1.2974412
1.2794432
1.2649602
1.253232
1.2436862
1.2358858
1.2294906
1.2242338
22.20392
21.801997
20.508202
17.688309
13.950673
10.446538
7.7934129
5.9336078
4.7157285
3.8490665
3.1382221
2.6035016
2.2508413
2.0054224
1.8198891
1.6789457
1.5729329
1.4926291
1.4313151
1.3842683
1.3478741
1.3194069
1.2968931
1.2789168
1.2644503
1.2527358
1.2432008
1.2354089
1.2290201
1.2237689
22.206505
21.806556
20.519635
17.708072
13.970332
10.460709
7.8012825
5.9370641
4.7163582
3.8483278
3.1370943
2.6022799
2.2496498
2.0042518
1.8187735
1.6779365
1.5720356
1.4918275
1.4305932
1.3836092
1.3472631
1.3188323
1.2963462
1.2783915
1.2639421
1.2522405
1.2427165
1.2349329
1.228551
1.2233055
22.209089
21.811103
20.531025
17.727838
13.990026
10.474962
7.8091943
5.9405405
4.7169995
3.8475958
3.1359706
2.6010609
2.2484595
2.0030832
1.8176586
1.6769295
1.5711399
1.4910288
1.4298725
1.3829519
1.3466536
1.3182589
1.2958004
1.2778672
1.2634349
1.2517463
1.2422328
1.2344577
1.2280832
1.222843
22.211673
21.815638
20.542369
17.747599
14.009747
10.489302
7.8171449
5.9440379
4.7176527
3.8468709
3.1348513
2.5998445
2.2472706
2.001916
1.8165447
1.6759253
1.5702458
1.4902314
1.4291542
1.3822963
1.3460456
1.3176869
1.2952563
1.2773442
1.2629289
1.2512536
1.2417503
1.2339836
1.2276162
1.2223814
22.214257
21.820163
20.553668
17.76736
14.029505
10.503726
7.8251383
5.9475577
4.7183178
3.8461534
3.1337364
2.5986308
2.2460841
2.0007501
1.8154354
1.6749225
1.5693545
1.4894353
1.428438
1.3816417
1.3454386
1.3171161
1.2947132
1.2768226
1.2624237
1.250762
1.2412691
1.233511
1.2271499
1.2219204
22.21684
21.824677
20.564929
17.787117
14.049287
10.518238
7.83317
5.9510999
4.7189948
3.8454435
3.1326262
2.5974199
2.2448994
1.9995863
1.8143269
1.6739219
1.5684652
1.4886414
1.4277229
1.3809887
1.3448332
1.316547
1.2941715
1.2763023
1.2619197
1.2502715
1.2407892
1.2330395
1.2266846
1.2214607
22.219422
21.829182
20.576148
17.80687
14.069104
10.532837
7.8412443
5.9546634
4.7196837
3.844741
3.1315203
2.5962118
2.2437157
1.9984241
1.8132188
1.6729235
1.567577
1.4878501
1.4270091
1.3803375
1.3442293
1.3159788
1.2936307
1.2757829
1.2614171
1.2497817
1.2403102
1.2325688
1.2262206
1.2210023
22.222003
21.833673
20.587323
17.826623
14.088949
10.547521
7.8493568
5.9582493
4.7203848
3.844046
3.1304189
2.5950065
2.2425336
1.9972627
1.8121146
1.671927
1.5666911
1.4870598
1.4262974
1.3796881
1.343627
1.3154121
1.2930913
1.2752645
1.2609157
1.2492929
1.239832
1.2320989
1.225758
1.2205451
22.224584
21.838151
20.598452
17.846369
14.108831
10.562286
7.8575114
5.9618594
4.7210982
3.8433584
3.1293217
2.593804
2.2413537
1.996103
1.811012
1.6709322
1.5658076
1.4862708
1.4255878
1.3790395
1.3430256
1.3148464
1.2925531
1.2747473
1.2604152
1.2488056
1.2393547
1.2316299
1.2252961
1.2200884
22.227165
21.842615
20.609538
17.866115
14.128769
10.577113
7.8657049
5.9654924
4.7218241
3.8426782
3.1282293
2.5926045
2.2401754
1.9949452
1.8099099
1.6699393
1.5649256
1.4854844
1.4248793
1.3783924
1.3424256
1.3142822
1.2920162
1.2742316
1.2599155
1.2483195
1.2388787
1.2311624
1.224835
1.2196325
22.229746
21.847065
20.620585
17.885854
14.148757
10.592005
7.8739402
5.9691481
4.7225626
3.8420055
3.1271416
2.5914079
2.2389981
1.9937884
1.80881
1.668949
1.5640448
1.4847
1.4241719
1.377747
1.3418269
1.3137193
1.2914803
1.2737168
1.2594169
1.2478342
1.2384039
1.2306959
1.2243746
1.2191775
22.232328
21.851503
20.631591
17.905589
14.168803
10.60696
7.8822159
5.972828
4.7233138
3.8413402
3.1260587
2.5902144
2.2378225
1.9926325
1.8077133
1.6679599
1.5631667
1.4839165
1.4234666
1.3771035
1.34123
1.3131574
1.2909454
1.2732031
1.2589198
1.2473497
1.2379302
1.2302303
1.2239154
1.2187239
22.23491
21.855927
20.642554
17.92532
14.188897
10.621979
7.8905331
5.9765327
4.7240779
3.8406823
3.1249804
2.5890237
2.2366488
1.9914783
1.8066168
1.6669727
1.5622906
1.4831344
1.4227633
1.3764608
1.340634
1.3125967
1.2904118
1.2726901
1.2584237
1.246866
1.237457
1.2297653
1.2234575
1.2182714
22.237491
21.860339
20.653471
17.945041
14.20905
10.637063
7.898892
5.9802605
4.7248549
3.8400317
3.1239065
2.5878362
2.2354765
1.9903255
1.8055211
1.6659878
1.5614155
1.4823551
1.4220611
1.3758193
1.3400392
1.3120372
1.2898795
1.2721786
1.2579286
1.2463838
1.2369847
1.2293012
1.2230006
1.2178197
22.240071
21.864738
20.664344
17.96476
14.229252
10.652211
7.9072921
5.9840123
4.7256449
3.8393888
3.1228371
2.5866516
2.2343051
1.989173
1.8044295
1.6650043
1.5605421
1.4815772
1.4213598
1.3751794
1.3394456
1.311479
1.2893481
1.2716681
1.257434
1.2459026
1.2365134
1.2288383
1.2225442
1.2173684
22.242649
21.869124
20.675178
17.984466
14.249508
10.667425
7.9157353
5.9877898
4.7264481
3.8387536
3.1217724
2.5854701
2.2331354
1.9880218
1.8033383
1.6640225
1.5596713
1.4808002
1.4206604
1.3745412
1.3388534
1.3109219
1.2888178
1.2711587
1.2569405
1.2454224
1.2360434
1.2283766
1.2220885
1.2169179
22.245227
21.8735
20.685973
18.004167
14.269819
10.682703
7.9242195
5.9915918
4.7272647
3.8381263
3.1207125
2.5842915
2.2319673
1.9868721
1.8022473
1.6630423
1.5588018
1.4800246
1.4199632
1.3739041
1.3382626
1.3103658
1.2882882
1.2706501
1.2564483
1.2449427
1.2355744
1.2279157
1.2216336
1.2164686
22.247804
21.877867
20.696725
18.023858
14.290178
10.698046
7.9327479
5.9954179
4.7280948
3.8375068
3.1196572
2.583116
2.2308003
1.9857229
1.8011596
1.6620645
1.5579333
1.4792519
1.4192668
1.3732679
1.3376727
1.3098109
1.2877602
1.2701423
1.2559572
1.2444639
1.2351061
1.2274554
1.2211802
1.2160206
22.250382
21.882223
20.707431
18.043537
14.310595
10.713455
7.9413175
5.9992698
4.7289386
3.836895
3.1186065
2.5819435
2.2296342
1.9845742
1.8000734
1.6610877
1.5570669
1.4784801
1.4185711
1.372633
1.3370838
1.3092568
1.2872329
1.2696356
1.2554668
1.2439861
1.2346382
1.2269956
1.2207276
1.2155731
22.252961
21.88657
20.718093
18.063209
14.33106
10.72893
7.9499324
6.0031482
4.729796
3.836291
3.1175601
2.580774
2.2284696
1.9834269
1.7989873
1.6601124
1.5562027
1.4777091
1.4178773
1.3719998
1.3364961
1.3087042
1.2867068
1.2691301
1.254977
1.2435096
1.2341713
1.2265368
1.2202756
1.2151262
22.25554
21.890907
20.728715
18.082865
14.351582
10.744471
7.9585888
6.0070512
4.730667
3.8356949
3.1165182
2.5796075
2.2273066
1.9822806
1.7979029
1.6591395
1.5553394
1.4769396
1.4171856
1.3713679
1.3359099
1.3081523
1.2861814
1.2686255
1.2544881
1.2430338
1.2337056
1.2260794
1.2198242
1.2146798
22.258117
21.895232
20.739301
18.102514
14.372154
10.760078
7.9672913
6.0109802
4.7315517
3.8351065
3.115481
2.5784438
2.2261447
1.9811344
1.7968215
1.6581676
1.5544772
1.4761729
1.4164947
1.3707367
1.3353246
1.3076017
1.2856569
1.2681217
1.2540005
1.2425587
1.233241
1.2256228
1.2193734
1.2142343
22.260693
21.899544
20.749844
18.122147
14.392778
10.775752
7.9760359
6.0149369
4.7324504
3.834526
3.1144486
2.577283
2.2249835
1.9799894
1.7957403
1.6571975
1.5536174
1.4754068
1.4158044
1.3701065
1.33474
1.3070516
1.2851335
1.2676184
1.2535137
1.242084
1.2327768
1.2251666
1.2189237
1.2137901
22.263267
21.903844
20.760342
18.141767
14.413456
10.791492
7.9848275
6.0189195
4.7333631
3.8339535
3.1134208
2.5761249
2.2238241
1.9788459
1.7946597
1.6562288
1.5527593
1.4746415
1.4151157
1.3694778
1.3341567
1.3065028
1.2846111
1.2671163
1.2530278
1.2416104
1.2323132
1.2247109
1.2184751
1.2133467
22.26584
21.908131
20.770796
18.161376
14.434183
10.807299
7.9936617
6.0229285
4.7342902
3.833389
3.1123976
2.5749694
2.2226662
1.9777031
1.7935827
1.6552621
1.5519017
1.4738778
1.414429
1.3688507
1.3335744
1.305955
1.2840897
1.2666151
1.2525422
1.2411379
1.2318501
1.2242559
1.2180271
1.2129037
22.268411
21.912406
20.781209
18.180964
14.454967
10.823173
8.0025435
6.0269659
4.7352317
3.8328325
3.1113789
2.5738161
2.2215093
1.9765611
1.7925065
1.6542965
1.5510457
1.4731166
1.4137432
1.3682241
1.3329935
1.305408
1.2835688
1.266115
1.2520574
1.2406664
1.2313883
1.2238022
1.2175796
1.2124612
22.270981
21.916669
20.791586
18.200544
14.475798
10.839114
8.0114687
6.0310307
4.7361879
3.8322843
3.1103648
2.5726653
2.2203534
1.9754208
1.7914303
1.653332
1.5501919
1.4723557
1.4130577
1.3675982
1.3324129
1.3048619
1.2830486
1.2656153
1.2515737
1.2401951
1.2309274
1.2233493
1.2171323
1.2120191
22.273549
21.92092
20.801924
18.220101
14.496685
10.855122
8.0204421
6.0351223
4.737159
3.8317444
3.1093556
2.5715168
2.2191992
1.9742818
1.7903567
1.6523698
1.5493391
1.4715955
1.4123737
1.3669737
1.3318336
1.3043165
1.2825297
1.2651161
1.251091
1.2397243
1.2304671
1.222897
1.216686
1.2115781
22.276115
21.925159
20.812218
18.239644
14.517621
10.871199
8.0294595
6.0392427
4.7381453
3.8312132
3.1083514
2.5703709
2.2180463
1.9731432
1.789285
1.6514083
1.5484867
1.4708371
1.4116916
1.3663506
1.3312549
1.3037722
1.2820114
1.264618
1.2506089
1.2392543
1.2300071
1.2224449
1.2162409
1.2111382
22.278679
21.929387
20.822467
18.259171
14.538608
10.887343
8.0385257
6.0433921
4.7391468
3.8306905
3.107352
2.5692272
2.2168942
1.9720059
1.7882133
1.6504485
1.5476365
1.4700807
1.4110103
1.3657283
1.3306776
1.3032288
1.2814941
1.2641208
1.2501272
1.2387854
1.2295477
1.2219933
1.2157964
1.2106988
22.281242
21.933605
20.832675
18.278674
14.55965
10.903554
8.0476364
6.0475687
4.7401637
3.8301764
3.1063576
2.5680858
2.215743
1.97087
1.7871427
1.6494897
1.5467879
1.4693246
1.4103294
1.3651064
1.3301009
1.302686
1.2809771
1.2636243
1.2496459
1.2383173
1.229089
1.2215427
1.2153522
1.2102595
22.283802
21.937815
20.842845
18.298166
14.580738
10.919834
8.0567964
6.0517745
4.7411958
3.8296709
3.1053678
2.5669468
2.2145934
1.9697346
1.7860748
1.6485325
1.5459398
1.468569
1.4096494
1.3644857
1.3295248
1.302144
1.2804608
1.2631284
1.2491658
1.2378496
1.2286314
1.2210931
1.2149083
1.2098207
22.28636
21.942014
20.85298
18.31763
14.60188
10.936181
8.0660017
6.0560104
4.742243
3.8291741
3.104383
2.5658102
2.2134449
1.9685998
1.785007
1.6475762
1.5450921
1.4678152
1.4089713
1.363866
1.3289497
1.3016024
1.2799456
1.2626328
1.2486864
1.2373822
1.2281744
1.220644
1.2144648
1.2093824
22.288917
21.946203
20.863074
18.337077
14.623071
10.952597
8.0752568
6.0602742
4.7433057
3.828686
3.1034031
2.5646759
2.2122969
1.9674663
1.7839394
1.6466206
1.5442469
1.4670631
1.4082941
1.3632475
1.3283752
1.3010622
1.279431
1.262138
1.2482077
1.2369153
1.2277178
1.2201952
1.2140225
1.2089454
22.291472
21.950387
20.873123
18.356504
14.644313
10.969082
8.0845579
6.0645678
4.744384
3.8282067
3.1024285
2.5635438
2.2111498
1.9663336
1.7828742
1.6456669
1.5434026
1.466311
1.407617
1.3626291
1.3278019
1.3005222
1.2789171
1.261644
1.2477292
1.2364494
1.2272613
1.2197465
1.213581
1.2085088
22.294027
21.954559
20.88313
18.375904
14.665606
10.985634
8.0939091
6.0688925
4.745478
3.8277362
3.101459
2.562414
2.2100041
1.9652009
1.7818098
1.6447137
1.5425584
1.4655593
1.4069406
1.3620116
1.327229
1.2999832
1.2784036
1.2611509
1.247251
1.2359843
1.2268053
1.2192984
1.2131397
1.2080726
22.29658
21.958719
20.893097
18.395288
14.686946
11.002256
8.1033073
6.0732459
4.746588
3.8272746
3.1004946
2.5612865
2.2088591
1.9640691
1.7807451
1.6437616
1.5417151
1.4648095
1.4062658
1.3613948
1.3266567
1.2994445
1.2778904
1.2606581
1.2467737
1.2355196
1.2263504
1.2188515
1.2126986
1.2076364
22.299132
21.962868
20.90303
18.414642
14.708339
11.018946
8.112756
6.0776297
4.7477143
3.8268219
3.0995352
2.5601614
2.2077147
1.9629384
1.7796819
1.6428102
1.540874
1.464061
1.4055921
1.3607795
1.3260851
1.2989063
1.2773784
1.2601655
1.2462972
1.235055
1.2258963
1.2184052
1.2122578
1.2072006
22.301681
21.967006
20.912927
18.433975
14.729778
11.035704
8.1222524
6.0820455
4.748857
3.8263782
3.0985809
2.5590385
2.206571
1.9618078
1.7786202
1.64186
1.5400331
1.4633124
1.4049183
1.3601643
1.3255141
1.2983691
1.2768667
1.2596734
1.2458212
1.2345906
1.2254422
1.2179589
1.2118175
1.2067655
22.304228
21.971132
20.922782
18.453284
14.751269
11.052533
8.1317997
6.0864907
4.7500165
3.8259437
3.0976318
2.5579177
2.2054284
1.9606772
1.7775582
1.6409105
1.539192
1.4625639
1.4042449
1.3595493
1.324944
1.2978322
1.2763557
1.2591822
1.2453455
1.2341271
1.2249883
1.2175128
1.2113783
1.2063315
22.306772
21.975247
20.932594
18.472562
14.772808
11.069429
8.1413958
6.090967
4.7511926
3.8255182
3.0966881
2.5567993
2.2042864
1.9595477
1.7764964
1.6399611
1.5383524
1.4618174
1.4035729
1.3589353
1.3243741
1.2972961
1.2758448
1.2586916
1.2448698
1.2336644
1.2245346
1.2170668
1.2109394
1.2058975
22.309314
21.97935
20.942365
18.491822
14.794395
11.086394
8.1510427
6.095476
4.752385
3.8251021
3.0957498
2.5556831
2.2031447
1.9584186
1.7754366
1.6390134
1.5375144
1.4610718
1.402902
1.3583222
1.3238049
1.2967601
1.2753342
1.2582013
1.2443946
1.2332021
1.2240817
1.2166218
1.2105007
1.2054637
22.311854
21.983443
20.952099
18.511048
14.816032
11.10343
8.1607395
6.1000149
4.7535938
3.8246953
3.0948168
2.5545691
2.2020036
1.957289
1.7743767
1.6380657
1.5366761
1.4603259
1.4022309
1.3577095
1.3232358
1.2962244
1.2748245
1.2577109
1.2439202
1.2327397
1.2236296
1.2161775
1.2100619
1.2050298
22.314393
21.987525
20.9618