/*--------------------------------*- C++ -*----------------------------------*\
| =========                 |                                                 |
| \\      /  F ield         | OpenFOAM: The Open Source CFD Toolbox           |
|  \\    /   O peration     | Version:  v2012                                 |
|   \\  /    A nd           | Website:  www.openfoam.com                      |
|    \\/     M anipulation  |                                                 |
\*---------------------------------------------------------------------------*/
FoamFile
{
    version     2.0;
    format      ascii;
    class       volScalarField;
    location    "903";
    object      T;
}
// * * * * * * * * * * * * * * * * * * * * * * * * * * * * * * * * * * * * * //

dimensions      [0 0 0 1 0 0 0];


internalField   nonuniform List<scalar> 
24000
(
42.836694
43.176147
44.434018
47.840449
54.896214
66.843006
83.918397
105.32887
128.18258
153.81083
186.84755
224.00446
258.33277
289.13154
318.11152
345.1367
369.15474
389.91204
407.523
422.20444
434.30094
444.23381
452.39573
459.11544
464.65871
469.23918
473.02911
476.16816
478.77011
480.92804
42.835183
43.172737
44.423057
47.814478
54.851336
66.782446
83.852056
105.27761
128.16027
153.82003
186.89561
224.09247
258.46195
289.30099
318.31768
345.37169
369.40597
390.16992
407.78059
422.45808
434.54961
444.47774
452.6356
459.35196
464.89255
469.47089
473.25916
476.39691
478.99786
481.15504
42.833642
43.169255
44.41195
47.788464
54.806045
66.723109
83.790064
105.2354
128.15005
153.84218
186.95926
224.19862
258.60831
289.48669
318.54031
345.62131
369.66894
390.43783
408.04741
422.72009
434.80585
444.72865
452.88205
459.59487
465.13269
469.7089
473.49551
476.63199
479.23196
481.38837
42.832099
43.165763
44.400859
47.762553
54.760899
66.664646
83.729803
105.19473
128.14123
153.86678
187.02462
224.30288
258.74757
289.66208
318.74656
345.84459
369.89714
390.66473
408.26983
422.93709
435.01808
444.9371
453.08757
459.79808
465.33407
469.90879
473.6942
476.82971
479.42889
481.58467
42.830555
43.162272
44.389797
47.736768
54.715821
66.606612
83.670419
105.15524
128.13412
153.89402
187.09359
224.41107
258.88961
289.84114
318.95829
346.07347
370.13251
390.90076
408.50296
423.16561
435.24201
445.1571
453.30436
460.01229
465.5462
470.11926
473.90335
477.03779
479.63613
481.79124
42.82901
43.158789
44.378782
47.711048
54.670783
66.548824
83.611424
105.11621
128.12792
153.9229
187.16485
224.52161
259.03366
290.02188
319.17132
346.30322
370.36831
391.13679
408.73576
423.39362
435.4654
445.37659
453.5207
460.22611
465.75801
470.32945
474.11224
477.24564
479.84314
481.9976
42.827466
43.155317
44.367814
47.685425
54.625786
66.491126
83.552566
105.07734
128.12229
153.95301
187.23792
224.63417
259.1796
290.20441
319.38607
346.53469
370.60581
391.37452
408.97022
423.62326
435.69038
445.59763
453.73856
460.44143
465.97129
470.5411
474.32258
477.45493
480.0516
482.20538
42.825922
43.151856
44.35691
47.659864
54.580813
66.433482
83.493705
105.03841
128.11701
153.98406
187.31232
224.74816
259.32685
290.38811
319.6019
346.7671
370.84414
391.61296
409.2053
423.85347
435.91589
445.81919
453.95694
460.65726
466.18509
470.75327
474.53344
477.66475
480.26058
482.4137
42.824378
43.148409
44.346055
47.634373
54.535873
66.375817
83.434756
104.99929
128.11191
154.01583
187.38774
224.86318
259.47501
290.5726
319.81839
347.0001
371.08297
391.85182
409.44075
424.08401
436.14171
446.04105
454.17561
460.87338
466.39917
470.96573
474.74459
477.87485
480.46984
482.62229
42.822834
43.144974
44.335256
47.608953
54.490955
66.318136
83.375659
104.95988
128.10691
154.04821
187.46396
224.97894
259.62379
290.75759
320.03527
347.2334
371.32202
392.09083
409.67631
424.31462
436.3676
446.26297
454.39433
461.08956
466.61332
471.17825
474.95581
478.08502
480.67917
482.83096
42.821292
43.141554
44.324505
47.583583
54.446065
66.26039
83.316385
104.92012
128.10193
154.08113
187.54082
225.09524
259.77296
290.94285
320.25233
347.46676
371.56106
392.32978
409.91176
424.54512
436.59337
446.48478
454.61295
461.30564
466.82737
471.39067
475.16693
478.2951
480.88841
483.03953
42.819749
43.138151
44.313817
47.558297
54.401205
66.202595
83.256907
104.87997
128.09693
154.11454
187.6182
225.21192
259.92238
291.12826
320.4694
347.70007
371.79999
392.56856
410.14702
424.77543
436.81895
446.7064
454.83139
461.52153
467.04124
471.60292
475.37787
478.505
481.09748
483.24793
42.818208
43.134769
44.303177
47.533051
54.356362
66.144715
83.197206
104.83936
128.09186
154.14843
187.696
225.32887
260.07194
291.31369
320.68641
347.93323
372.0387
392.80709
410.38201
425.00545
437.04424
446.92773
455.04954
461.73716
467.25484
471.8149
475.58856
478.71464
481.30629
483.45608
42.816666
43.1314
44.292592
47.507886
54.311559
66.086769
83.13728
104.79827
128.08672
154.18279
187.77418
225.44601
260.22159
291.49909
320.9033
348.16616
372.27713
393.0453
410.61666
425.23513
437.2692
447.14875
455.26738
461.95247
467.46814
472.02658
475.79894
478.92399
481.51481
483.66393
42.815125
43.128043
44.282053
47.482763
54.26677
66.028726
83.077115
104.75666
128.08147
154.21764
187.85267
225.56327
260.37122
291.68439
321.11997
348.39882
372.51522
393.28313
410.8509
425.46441
437.49378
447.36938
455.48486
462.16742
467.68108
472.23791
476.00899
479.133
481.72298
483.87145
42.813585
43.124699
44.271573
47.457716
54.222021
65.970609
83.01671
104.71451
128.07608
154.25298
187.93144
225.68061
260.52083
291.86957
321.33643
348.63119
372.75297
393.52058
411.08476
425.69331
437.71797
447.58964
455.70196
462.38201
467.89366
472.44888
476.21867
479.34165
481.93081
484.07861
42.812045
43.121368
44.261143
47.432718
54.177288
65.912388
82.956069
104.67178
128.07055
154.28885
188.01043
225.79798
260.67039
292.05461
321.55266
348.86323
372.99034
393.75762
411.31819
425.92177
437.94173
447.80949
455.91866
462.5962
468.10584
472.65947
476.42797
479.54991
482.13825
484.2854
42.810507
43.118049
44.250765
47.407784
54.132595
65.854086
82.895187
104.62844
128.06486
154.3253
188.0896
225.91535
260.81987
292.23948
321.76863
349.09494
373.22734
393.99425
411.5512
426.14982
438.1651
448.02894
456.13497
462.81001
468.31765
472.86968
476.6369
479.75782
482.34533
484.49182
42.80897
43.114743
44.240434
47.382916
54.087923
65.795677
82.834075
104.58447
128.05899
154.36239
188.16889
226.03267
260.96922
292.42416
321.98432
349.32632
373.46394
394.23044
411.78375
426.37743
438.38802
448.24796
456.35086
463.0234
468.52905
473.07948
476.84542
479.96532
482.55201
484.69784
42.807434
43.111448
44.230158
47.358094
54.043287
65.737184
82.772734
104.53984
128.05292
154.40018
188.24826
226.14993
261.11847
292.60866
322.19975
349.55733
373.70014
394.46621
412.01587
426.60459
438.61052
448.46656
456.56633
463.23638
468.74004
473.28889
477.05355
480.17242
482.75829
484.90348
42.805898
43.108166
44.219934
47.333354
53.998683
65.678582
82.71117
104.49452
128.04662
154.43873
188.32764
226.26709
261.26759
292.79294
322.41488
349.78798
373.93592
394.70154
412.24753
426.83131
438.83257
448.68473
456.78138
463.44894
468.95063
473.49788
477.26127
480.37912
482.96418
485.10871
42.804363
43.104896
44.209761
47.308657
53.954103
65.619892
82.6494
104.44848
128.04006
154.47817
188.40697
226.38414
261.41655
292.97702
322.62971
350.01827
374.1713
394.93643
412.47875
427.05759
439.05421
448.90249
456.99603
463.66111
469.16082
473.70649
477.46861
480.58545
483.16969
485.31357
42.802828
43.101642
44.199636
47.284038
53.909572
65.56109
82.587425
104.40192
128.03325
154.51808
188.48617
226.50107
261.56537
293.16087
322.84424
350.24818
374.40624
395.17085
412.7095
427.28339
439.27537
449.11979
457.21023
463.87284
469.37058
473.91467
477.67553
480.79135
483.37478
485.51801
42.801293
43.098405
44.18956
47.259466
53.865058
65.502198
82.525253
104.35514
128.02624
154.5578
188.56522
226.61786
261.71404
293.34451
323.05848
350.47773
374.64079
395.40485
412.9398
427.50876
439.49612
449.33668
457.42402
464.08417
469.57994
474.12246
477.88205
480.99686
483.57948
485.72207
42.799762
43.095183
44.179541
47.234968
53.820595
65.44319
82.462883
104.30814
128.01903
154.59734
188.6441
226.73453
261.86256
293.52794
323.27242
350.70691
374.87492
395.6384
413.16965
427.73368
439.71642
449.55314
457.63739
464.29509
469.78889
474.32984
478.08817
481.20197
483.78378
485.92572
42.798233
43.091973
44.16957
47.210526
53.776153
65.384089
82.400307
104.26091
128.01162
154.63669
188.72283
226.85106
262.01092
293.71115
323.48608
350.93574
375.10865
395.87153
413.39907
427.95818
439.93631
449.76919
457.85037
464.50561
469.99745
474.53683
478.29391
481.4067
483.98771
486.12901
42.796703
43.088774
44.159649
47.186147
53.731761
65.324867
82.337533
104.21347
128.004
154.67586
188.80139
226.96745
262.15914
293.89416
323.69946
351.16422
375.34198
396.10422
413.62804
428.18224
440.15576
449.98481
458.06292
464.71571
470.2056
474.74342
478.49924
481.61103
484.19123
486.33189
42.795175
43.085588
44.14977
47.16184
53.687399
65.26555
82.274551
104.16579
127.99618
154.71484
188.87977
227.08371
262.30721
294.07696
323.91255
351.39236
375.57494
396.33652
413.8566
428.40588
440.37481
450.20004
458.27508
464.92543
470.41337
474.94963
478.7042
481.81499
484.39438
486.53441
42.793646
43.082412
44.139954
47.137584
53.643078
65.206109
82.21136
104.11788
127.98815
154.75364
188.95797
227.19981
262.45512
294.25955
324.12534
351.62013
375.80748
396.56837
414.08471
428.62908
440.59342
450.41485
458.48683
465.13474
470.62074
475.15544
478.90877
482.01855
484.59715
486.73653
42.792119
43.079248
44.130182
47.113406
53.598803
65.14657
82.147964
104.06975
127.97992
154.79224
189.03598
227.31577
262.60288
294.44192
324.33786
351.84754
376.03962
396.79981
414.3124
428.85187
440.81164
450.62926
458.6982
465.34368
470.82774
475.36089
479.11297
482.22175
484.79955
486.9383
42.790591
43.076095
44.120462
47.08928
53.554554
65.086904
82.084353
104.02138
127.97148
154.83066
189.11381
227.43157
262.75048
294.62408
324.5501
352.07463
376.2714
397.03084
414.53966
429.07423
441.02944
450.84327
458.90916
465.55222
471.03434
475.56594
479.31678
482.42457
485.00157
487.13968
42.789065
43.072954
44.110785
47.065228
53.51037
65.027137
82.020536
103.97278
127.96283
154.86887
189.19145
227.54723
262.89794
294.80605
324.76206
352.30138
376.50279
397.26147
414.76653
429.29619
441.24685
451.0569
459.11975
465.76039
471.24058
475.77064
479.52024
482.62703
485.20324
487.34072
42.787539
43.069824
44.101162
47.041233
53.466207
64.967242
81.956503
103.92394
127.95396
154.90688
189.2689
227.66274
263.04524
294.98782
324.97375
352.52777
376.73378
397.49166
414.99294
429.51772
441.46384
451.27011
459.32993
465.96816
471.44643
475.97494
479.7233
482.82911
485.40452
487.54137
42.786013
43.066706
44.091588
47.017308
53.42211
64.907237
81.892255
103.87487
127.94489
154.9447
189.34615
227.77811
263.19241
295.1694
325.18519
352.75387
376.96444
397.7215
415.21899
429.73889
441.68047
451.48297
459.53978
466.17559
471.65194
476.17891
479.92604
483.03086
485.60548
487.7417
42.784488
43.063603
44.082067
46.993448
53.378042
64.847107
81.827795
103.82556
127.9356
154.98231
189.4232
227.89333
263.33945
295.35081
325.39639
352.97966
377.19475
397.95096
415.44464
429.95965
441.8967
451.69544
459.74923
466.38264
471.85706
476.3825
480.1284
483.23223
485.80607
487.94165
42.782964
43.060515
44.072589
46.969649
53.334032
64.786858
81.763111
103.77601
127.92609
155.01974
189.50006
228.00841
263.48636
295.53204
325.60735
353.20513
377.42469
398.18003
415.6699
430.18003
442.11256
451.90754
459.95832
466.58934
472.06185
476.58575
480.33042
483.43327
486.00631
488.14127
42.78144
43.057441
44.063156
46.945928
53.290068
64.726486
81.698217
103.72621
127.91637
155.05696
189.57672
228.12333
263.63313
295.71308
325.81804
353.43029
377.65427
398.4087
415.89476
430.40001
442.32802
452.11926
460.16704
466.79566
472.26625
476.78863
480.53207
483.63394
486.2062
488.34053
42.779917
43.054379
44.053781
46.922264
53.246147
64.665985
81.633099
103.67616
127.90642
155.09398
189.65316
228.2381
263.77977
295.89395
326.02851
353.65518
377.88356
398.63706
416.11928
430.61965
442.54315
452.33066
460.37543
467.00166
472.47035
476.9912
480.73342
483.8343
486.40578
488.53949
42.778395
43.051327
44.044453
46.898673
53.202293
64.605362
81.567761
103.62588
127.89625
155.1308
189.72937
228.35271
263.92628
296.07466
326.23874
353.87974
378.11247
398.86502
416.34339
430.83889
442.75789
452.54166
460.58344
467.20729
472.67408
477.1934
480.9344
484.0343
486.605
488.73809
42.776873
43.048286
44.035173
46.875143
53.15847
64.544604
81.502202
103.57535
127.88586
155.16741
189.80537
228.46718
264.07267
296.25519
326.44873
354.10401
378.34105
399.09261
416.56714
431.05777
442.97228
452.75233
460.79112
467.41259
472.87748
477.39528
481.13506
484.23399
486.8039
488.93637
42.775353
43.045256
44.025933
46.851682
53.114727
64.48372
81.436416
103.52456
127.87524
155.2038
189.88115
228.58148
264.21892
296.43556
326.65848
354.32799
378.56929
399.31984
416.7905
431.27627
443.18629
452.96262
460.99844
467.61753
473.08052
477.5968
481.33537
484.43332
487.00245
489.1343
42.773835
43.042236
44.016747
46.828289
53.071018
64.422695
81.370413
103.47352
127.86439
155.23997
189.9567
228.69564
264.36507
296.61578
326.86805
354.55171
378.79723
399.54675
417.01354
431.49444
443.39998
453.1726
461.20545
467.82217
473.28326
477.79804
481.53539
484.63236
487.20072
489.33195
42.772318
43.039227
44.007609
46.80496
53.027381
64.361542
81.30418
103.42223
127.85331
155.27592
190.03202
228.80963
264.51112
296.79585
327.07738
354.77513
379.02484
399.77329
417.23619
431.71223
443.6133
453.38222
461.41209
468.02645
473.48565
477.99891
481.73505
484.83106
487.39864
489.52925
42.770802
43.036229
43.998523
46.781709
52.983796
64.300241
81.237726
103.37069
127.84198
155.31166
190.10711
228.92348
264.65705
296.97578
327.2865
354.9983
379.25214
399.99951
417.45851
431.9297
443.8263
453.59152
461.61843
468.23042
473.68774
478.19949
481.93442
485.02946
487.59626
489.72625
42.769287
43.033241
43.989478
46.758519
52.940268
64.23881
81.171044
103.31889
127.83043
155.34718
190.18196
229.03718
264.80289
297.15557
327.49543
355.2212
379.47914
400.22537
417.68047
432.14679
444.03893
453.80046
461.82441
468.43404
473.88948
478.39972
482.13344
485.22751
487.79354
489.92292
42.767772
43.030264
43.980473
46.735403
52.896814
64.177228
81.104136
103.26682
127.81862
155.38248
190.25658
229.15074
264.94865
297.33525
327.70419
355.44386
379.70585
400.45095
417.90211
432.36358
444.25127
454.00911
462.0301
468.63738
474.09094
478.59968
482.33219
485.4253
487.99056
490.11932
42.766259
43.027301
43.971527
46.712354
52.853402
64.115507
81.037006
103.2145
127.80657
155.41756
190.33096
229.26414
265.09432
297.51479
327.91273
355.66626
379.93226
400.67618
418.12342
432.58002
444.46326
454.21742
462.23546
468.84039
474.29207
478.7993
482.53061
485.62275
488.18724
490.3154
42.764746
43.024349
43.962627
46.689374
52.810084
64.053638
80.969644
103.16192
127.79427
155.45241
190.4051
229.3774
265.2399
297.69421
328.1211
355.88843
380.1584
400.90111
418.3444
432.79615
444.67494
454.42543
462.44052
469.0431
474.4929
478.99864
482.72875
485.81993
488.38365
490.51119
42.763237
43.021413
43.953774
46.666465
52.766809
63.991617
80.902064
103.10907
127.78171
155.48703
190.47901
229.49051
265.38541
297.87352
328.32929
356.11034
380.38423
401.1257
418.56503
433.01193
444.88627
454.63308
462.64524
469.24547
474.6934
479.19764
482.92655
486.01677
488.57972
490.70666
42.76173
43.018489
43.94496
46.64362
52.72362
63.929445
80.83425
103.05595
127.76889
155.52141
190.55266
229.60349
265.53086
298.05272
328.53731
356.33203
380.60981
401.35003
418.78538
433.22742
445.09733
454.84048
462.8497
469.44759
474.89365
479.39639
483.12411
486.21336
488.77555
490.90188
42.760224
43.015574
43.936191
46.620854
52.680493
63.867113
80.766217
103.00257
127.75579
155.55554
190.62609
229.71632
265.67624
298.2318
328.74515
356.55349
380.83511
401.57403
419.0054
433.44258
445.30806
455.04754
463.05383
469.64938
475.09357
479.59482
483.32133
486.40963
488.97106
491.09678
42.758719
43.012669
43.927476
46.598155
52.637437
63.804628
80.697952
102.94891
127.74242
155.58942
190.69929
229.82902
265.82155
298.41079
328.95285
356.77473
381.06015
401.79774
419.22512
433.65744
445.51848
455.25431
463.25766
469.85088
475.29321
479.79297
483.51828
486.60563
489.16629
491.2914
42.757215
43.009775
43.918808
46.575527
52.594465
63.741972
80.629463
102.89498
127.72876
155.62304
190.77228
229.94161
265.9668
298.58968
329.16038
356.99575
381.28491
402.02115
419.4445
433.87196
445.72858
455.46075
463.46118
470.05206
475.49253
479.99079
483.71492
486.80131
489.36121
491.48571
42.755713
43.00689
43.910183
46.552971
52.55155
63.679159
80.560749
102.84076
127.7148
155.6564
190.84504
230.05407
266.11199
298.76848
329.36776
357.21658
381.50945
402.24431
419.66363
434.08623
445.93842
455.66695
463.66445
470.25299
475.6916
480.18838
483.91131
486.99675
489.55589
491.67979
42.754211
43.004016
43.901597
46.530479
52.508742
63.616174
80.491809
102.78627
127.70054
155.68948
190.91759
230.16642
266.25711
298.94718
329.57501
357.43719
381.73372
402.46716
419.88244
434.30017
446.14794
455.87281
463.86739
470.45361
475.89036
480.38565
484.10739
487.19187
489.75025
491.87355
42.752711
43.001151
43.893058
46.508066
52.465989
63.55302
80.422651
102.7315
127.68598
155.72229
190.98994
230.27866
266.40214
299.1258
329.78211
357.6576
381.95775
402.68974
420.10096
434.51382
446.35718
456.07841
464.07006
470.65396
476.08885
480.58265
484.30321
487.38674
489.94436
492.06706
42.751211
42.998296
43.884568
46.485712
52.423338
63.489692
80.353264
102.67644
127.6711
155.75482
191.06207
230.39078
266.54712
299.30433
329.98907
357.87782
382.18154
402.91205
420.31919
434.72718
446.56611
456.2837
464.27244
470.85401
476.28704
480.77936
484.49873
487.58131
490.13818
492.26027
42.749714
42.99545
43.876128
46.463441
52.380762
63.426183
80.283667
102.62109
127.65592
155.78707
191.13399
230.50278
266.69203
299.48279
330.19593
358.09788
382.40513
403.13414
420.53718
434.94029
446.77481
456.48875
464.47458
471.05382
476.485
480.97584
484.69402
487.77565
490.33176
492.45326
42.748217
42.992616
43.867727
46.44124
52.338272
63.362498
80.213846
102.56546
127.64043
155.81903
191.20567
230.61466
266.83688
299.66119
330.40267
358.31774
382.62847
403.35593
420.75486
435.15309
446.98319
456.6935
464.67641
471.25333
476.68266
481.17201
484.88901
487.96969
490.52504
492.64594
42.746722
42.989794
43.859365
46.419107
52.295881
63.298623
80.143818
102.50953
127.62461
155.8507
191.27713
230.72641
266.98166
299.83952
330.60929
358.53745
382.8516
403.57749
420.97229
435.36564
447.19133
456.898
464.87799
471.4526
476.88007
481.36795
485.08376
488.16349
490.71809
492.8384
42.745228
42.986983
43.851049
46.39705
52.253562
63.234573
80.073574
102.45331
127.60848
155.88208
191.34835
230.83804
267.12639
300.0178
330.81582
358.757
383.07453
403.79881
421.18945
435.57791
447.39918
457.10221
465.0793
471.65158
477.0772
481.5636
485.27822
488.35702
490.91086
493.03057
42.743735
42.984186
43.842783
46.375056
52.211364
63.170331
80.003128
102.39679
127.59202
155.91316
191.41934
230.94955
267.2711
300.19605
331.02229
358.97642
383.29729
404.01991
421.40639
435.78996
447.6068
457.3062
465.28037
471.85033
477.27411
481.75902
485.47246
488.55031
491.10341
493.22252
42.742244
42.9814
43.834565
46.353144
52.169238
63.105901
79.932477
102.33997
127.57523
155.94394
191.49009
231.06093
267.41574
300.37428
331.22868
359.1957
383.51985
404.24078
421.62307
436.00172
447.81415
457.50991
465.48117
472.04881
477.47074
481.95417
485.66643
488.74334
491.29568
493.4142
42.740754
42.978623
43.826384
46.331294
52.127226
63.041291
79.861627
102.28284
127.55812
155.97443
191.5606
231.17217
267.56035
300.55248
331.43501
359.41486
383.74225
404.46145
421.83952
436.21327
448.02128
457.7134
465.68174
472.24707
477.66714
482.1491
485.86018
488.93614
491.48773
493.60565
42.739267
42.975856
43.818241
46.309521
52.085239
62.976613
79.790583
102.2254
127.54068
156.00461
191.63085
231.28327
267.70491
300.73066
331.64129
359.6339
383.96446
404.6819
422.05573
436.42455
448.22813
457.91661
465.88204
472.44505
477.86327
482.34375
486.05365
489.12867
491.67951
493.79684
42.737783
42.973098
43.810143
46.287825
52.043292
62.911878
79.719336
102.16764
127.52289
156.03449
191.70082
231.39421
267.84944
300.90885
331.84753
359.85285
384.18652
404.90216
422.27173
436.63562
448.43478
458.11962
466.08214
472.64282
478.0592
482.5382
486.24691
489.32099
491.87108
493.98782
42.7363
42.970349
43.802094
46.266191
52.001394
62.847078
79.647895
102.10957
127.50477
156.06406
191.77053
231.505
267.99392
301.08704
332.05372
360.07168
384.40842
405.12221
422.4875
436.84645
448.64117
458.32237
466.28198
472.84035
478.25487
482.73239
486.43993
489.51306
492.06241
494.17856
42.734819
42.967609
43.794092
46.24464
51.959521
62.782218
79.576249
102.05117
127.4863
156.09331
191.83997
231.61563
268.13837
301.26524
332.2599
360.29042
384.63017
405.34207
422.70306
437.05707
448.84735
458.52491
466.48161
473.03765
478.45033
482.92638
486.63273
489.70492
492.25352
494.36908
42.73334
42.964879
43.786127
46.223147
51.917716
62.717297
79.504411
101.99246
127.4675
156.12226
191.90914
231.72608
268.2828
301.44347
332.46607
360.50908
384.85177
405.56173
422.91839
437.26743
449.05328
458.72719
466.68098
473.2347
478.64553
483.1201
486.82527
489.89652
492.44438
494.55935
42.731862
42.962158
43.778198
46.201744
51.875932
62.652314
79.432366
101.93342
127.44834
156.15088
191.97803
231.83636
268.42723
301.62177
332.67226
360.72768
385.07326
405.78125
423.13356
437.47763
449.25904
458.92931
466.88018
473.43159
478.84056
483.31365
487.01765
490.08796
492.63507
494.74945
42.730386
42.959446
43.770311
46.180408
51.834212
62.58728
79.360131
101.87406
127.42885
156.17919
192.04663
231.94646
268.57163
301.80012
332.87846
360.94622
385.29462
406.00059
423.34851
437.68761
449.46457
459.1312
467.07915
473.62823
479.03536
483.50697
487.20979
490.27916
492.82552
494.93932
42.728912
42.956742
43.762474
46.159143
51.792528
62.522185
79.28769
101.81437
127.409
156.20719
192.11494
232.05637
268.71605
301.97857
333.08472
361.16472
385.51586
406.21977
423.56328
437.89739
449.66991
459.33289
467.27792
473.82469
479.22996
483.7001
487.40174
490.47017
493.01579
495.129
42.727441
42.954052
43.754683
46.137965
51.750889
62.457035
79.215057
101.75436
127.38881
156.23487
192.18297
232.16608
268.86048
302.15713
333.29103
361.38317
385.73699
406.43877
423.77785
438.10696
449.87502
459.53435
467.47647
474.02091
479.42434
483.893
487.59346
490.66095
493.20583
495.31845
42.725974
42.951371
43.746928
46.116846
51.709308
62.391828
79.142217
101.69401
127.36825
156.26223
192.25072
232.27558
269.00495
302.33585
333.49742
361.60162
385.95806
406.65768
423.9923
438.3164
450.08001
459.73568
467.67489
474.217
479.61858
484.08576
487.78504
490.8516
493.39573
495.50777
42.724509
42.9487
43.73921
46.09582
51.667757
62.326566
79.069187
101.63333
127.34734
156.28928
192.31818
232.38484
269.14944
302.51472
333.7039
361.82004
386.179
406.87641
424.20655
438.52563
450.28477
459.93679
467.87308
474.41287
479.8126
484.27831
487.97641
491.04203
493.58542
495.69688
42.723045
42.946043
43.731526
46.074856
51.626278
62.26126
78.99595
101.57232
127.32607
156.31601
192.38535
232.49385
269.29397
302.6938
333.91048
362.03844
386.39986
407.09501
424.42064
438.73469
450.48936
460.13774
468.0711
474.60857
480.00645
484.47068
488.16761
491.23229
493.77494
495.88581
42.721584
42.943395
43.723896
46.053976
51.584828
62.195896
78.922522
101.51098
127.30445
156.34243
192.45223
232.60258
269.43856
302.87312
334.11716
362.25681
386.62061
407.31345
424.63455
438.94356
450.69377
460.33848
468.26893
474.80408
480.2001
484.66286
488.35861
491.42236
493.96426
496.07456
42.720125
42.940756
43.71631
46.033178
51.543445
62.130483
78.848886
101.44929
127.28246
156.36852
192.51881
232.71099
269.58321
303.05273
334.32396
362.47518
386.8413
407.5318
424.84835
439.15232
450.89806
460.53912
468.46665
474.99948
480.39365
484.85493
488.54951
491.61232
494.15348
496.2632
42.718668
42.938125
43.708761
46.012443
51.502106
62.065021
78.775058
101.38726
127.2601
156.39429
192.58511
232.81905
269.72791
303.23271
334.53082
362.69348
387.06185
407.74999
425.06196
439.36087
451.10215
460.73956
468.66416
475.19467
480.58699
485.0468
488.7402
491.80208
494.3425
496.45163
42.717212
42.935502
43.701246
45.991804
51.460814
61.999509
78.701022
101.32489
127.23738
156.41973
192.65114
232.92679
269.87265
303.41302
334.73773
362.91174
387.28233
407.96806
425.27544
439.5693
451.3061
460.93986
468.86155
475.38973
480.7802
485.23854
488.93076
491.9917
494.53139
496.63994
42.715759
42.932889
43.693766
45.971225
51.419589
61.933957
78.626792
101.26218
127.21428
156.44485
192.71691
233.03439
270.01738
303.59337
334.94464
363.12996
387.50271
408.18599
425.48877
439.77757
451.5099
461.14
469.05877
475.58463
480.97325
485.43011
489.12116
492.18117
494.72012
496.82809
42.714308
42.930284
43.68633
45.950739
51.3784
61.868353
78.552357
101.19911
127.19081
156.46963
192.78241
233.14186
270.16212
303.77378
335.15158
363.34814
387.72302
408.40385
425.70202
439.98574
451.71361
461.34005
469.2559
475.77944
481.16622
485.6216
489.31147
492.37055
494.90876
497.01615
42.712859
42.927687
43.678941
45.930329
51.337284
61.802706
78.477728
101.13569
127.16696
156.49408
192.84763
233.24919
270.30685
303.95423
335.35852
363.56628
387.94325
408.62158
425.91511
440.19376
451.91715
461.53994
469.45287
475.97408
481.35901
485.81292
489.50162
492.55976
495.09723
497.20405
42.711413
42.925098
43.671591
45.909987
51.296208
61.737024
78.402892
101.07193
127.14272
156.51818
192.91257
233.35638
270.45159
304.13474
335.56549
363.78441
388.16344
408.83924
426.12812
440.40169
452.1206
461.73973
469.64974
476.16863
481.55171
486.00414
489.69166
492.74887
495.28561
497.39185
42.709968
42.922518
43.664274
45.889744
51.255197
61.671292
78.327863
101.0078
127.1181
156.54194
192.97723
233.46344
270.59635
304.31533
335.77249
364.00252
388.38355
409.0568
426.341
440.60948
452.32391
461.93938
469.84647
476.36304
481.74427
486.19523
489.88158
492.93786
495.47385
497.57951
42.708526
42.919947
43.656991
45.869559
51.214243
61.605525
78.252629
100.94332
127.09309
156.56536
193.04161
233.57038
270.74113
304.496
335.97956
364.22064
388.60364
409.27431
426.55383
440.81722
452.52717
462.13898
470.04315
476.5574
481.93677
486.38626
490.07143
493.12678
495.66204
497.76712
42.707086
42.917387
43.649743
45.849474
51.173339
61.539721
78.177203
100.87849
127.06768
156.58844
193.10572
233.67717
270.88592
304.67675
336.18668
364.43877
388.82371
409.49176
426.76657
441.02486
452.73032
462.33846
470.23971
476.75163
482.12915
486.57716
490.26116
493.31557
495.8501
497.9546
42.705648
42.914836
43.642543
45.829463
51.132508
61.473874
78.101574
100.8133
127.04189
156.61117
193.16954
233.78384
271.03075
304.85762
336.39388
364.65695
389.04379
409.70919
426.97927
441.23244
452.93341
462.53789
470.43621
476.9458
482.32147
486.768
490.45083
493.50431
496.0381
498.14203
42.704212
42.912293
43.635387
45.809522
51.091719
61.408
78.025754
100.74775
127.01571
156.63354
193.23307
233.89037
271.17562
305.03858
336.60116
364.87515
389.26383
409.92655
427.19188
441.43993
453.13641
462.73722
470.63261
477.13987
482.51369
486.95874
490.64039
493.69294
496.226
498.32935
42.702781
42.909762
43.628263
45.789685
51.051009
61.342085
77.949732
100.68185
126.98913
156.65557
193.29631
233.99679
271.32054
305.21968
336.80854
365.09342
389.48391
410.14393
427.4045
441.64742
453.33939
462.93654
470.829
477.33393
482.70589
487.14947
490.82994
493.88155
496.41387
498.51665
42.701353
42.907241
43.621171
45.769905
51.01035
61.276137
77.87352
100.61558
126.96215
156.67724
193.35925
234.10307
271.4655
305.4009
337.01604
365.31175
389.70403
410.3613
427.61707
441.85485
453.54232
463.13578
471.02531
477.5279
482.89801
487.3401
491.0194
494.07008
496.60166
498.70387
42.699926
42.904728
43.614112
45.750228
50.969754
61.210168
77.797106
100.54895
126.93478
156.69855
193.42191
234.20924
271.61052
305.58227
337.22367
365.53018
389.92419
410.57868
427.82965
442.06227
453.74522
463.33501
471.22159
477.72185
483.0901
487.53072
491.20884
494.25858
496.78943
498.89106
42.698503
42.902223
43.60709
45.730624
50.929229
61.144158
77.720504
100.48196
126.907
156.7195
193.48427
234.31528
271.75562
305.76378
337.43142
365.74867
390.14437
410.79605
428.04219
442.26965
453.94808
463.53418
471.41783
477.91575
483.28213
487.72127
491.39821
494.44702
496.97713
499.07819
42.697081
42.899726
43.600116
45.711093
50.888757
61.078124
77.6437
100.4146
126.87882
156.74009
193.54635
234.4212
271.90078
305.94547
337.63933
365.96731
390.36466
411.0135
428.25479
442.47707
454.15098
463.73339
471.61409
478.10967
483.47419
487.91184
491.5876
494.63548
497.16486
499.26534
42.695662
42.897236
43.593178
45.691667
50.848361
61.01207
77.566708
100.34688
126.85022
156.76031
193.60812
234.52701
272.04601
306.12732
337.8474
366.18606
390.58503
411.231
428.4674
442.68449
454.35386
463.93257
471.81032
478.30355
483.6662
488.10237
491.77695
494.82389
497.35253
499.45245
42.694246
42.894754
43.586271
45.672299
50.808017
60.94598
77.489516
100.27879
126.82121
156.78017
193.66958
234.6327
272.19133
306.30936
338.05565
366.40494
390.80549
411.44854
428.68004
442.89193
454.55675
464.13177
472.00656
478.49745
483.85823
488.29291
491.96631
495.01232
497.54022
499.63956
42.692832
42.89228
43.579396
45.653033
50.767751
60.879874
77.412137
100.21033
126.79179
156.79965
193.73074
234.73827
272.33674
306.49158
338.26407
366.62395
391.02604
411.66614
428.89272
443.09939
454.75966
464.33097
472.20281
478.69134
484.05025
488.48344
492.15565
495.20073
497.72789
499.82666
42.691421
42.889814
43.572551
45.633845
50.727551
60.813749
77.334559
100.14151
126.76196
156.81876
193.7916
234.84372
272.48224
306.67401
338.4727
366.84316
391.24675
411.88388
429.10551
443.30696
454.96267
464.53026
472.39913
478.8853
484.24234
488.67404
492.34507
495.3892
497.91563
500.01383
42.690015
42.887355
43.565745
45.614725
50.687415
60.747594