/*--------------------------------*- C++ -*----------------------------------*\
| =========                 |                                                 |
| \\      /  F ield         | OpenFOAM: The Open Source CFD Toolbox           |
|  \\    /   O peration     | Version:  v2012                                 |
|   \\  /    A nd           | Website:  www.openfoam.com                      |
|    \\/     M anipulation  |                                                 |
\*---------------------------------------------------------------------------*/
FoamFile
{
    version     2.0;
    format      ascii;
    class       volVectorField;
    location    "903";
    object      U;
}
// * * * * * * * * * * * * * * * * * * * * * * * * * * * * * * * * * * * * * //

dimensions      [0 1 -1 0 0 0 0];


internalField   nonuniform List<vector> 
24000
(
(29.739533 -0.0057758394 0)
(29.903738 -0.016530523 0)
(30.397147 -0.021044925 0)
(31.361738 -0.013877629 0)
(32.729899 -0.0016715121 0)
(34.347235 0.010423662 0)
(35.999133 0.01997776 0)
(37.486615 0.026784456 0)
(38.547281 0.029341238 0)
(39.159164 0.029220294 0)
(39.176343 0.028243156 0)
(38.247405 0.025899546 0)
(36.483208 0.023183622 0)
(34.109888 0.020363665 0)
(31.130557 0.016202679 0)
(27.660988 0.013240658 0)
(24.014103 0.010693192 0)
(20.43043 0.0082769231 0)
(17.075867 0.0060962598 0)
(14.068503 0.0044557033 0)
(11.455708 0.0031738363 0)
(9.2220886 0.0021917329 0)
(7.3271796 0.0014607214 0)
(5.7259888 0.00093315415 0)
(4.3763762 0.00056529382 0)
(3.2409514 0.00031866375 0)
(2.2872064 0.00016169581 0)
(1.4871521 6.8625805e-05 0)
(0.81683476 2.0532517e-05 0)
(0.25584534 1.1572207e-06 0)
(29.726656 -0.0063877911 0)
(29.891029 -0.018414391 0)
(30.383335 -0.023453366 0)
(31.345739 -0.015123133 0)
(32.711536 -0.0001904987 0)
(34.326225 0.014807518 0)
(35.975824 0.026270023 0)
(37.462079 0.034203883 0)
(38.522288 0.036110089 0)
(39.13389 0.03455275 0)
(39.150806 0.032168864 0)
(38.221257 0.029389764 0)
(36.455567 0.026140468 0)
(34.079535 0.022296002 0)
(31.096725 0.018299605 0)
(27.623498 0.014487163 0)
(23.973583 0.011130263 0)
(20.387541 0.0083190453 0)
(17.031678 0.0060565187 0)
(14.024333 0.0042984466 0)
(11.412946 0.0029756537 0)
(9.1821043 0.0020034125 0)
(7.2911552 0.0013058108 0)
(5.6947722 0.00081824658 0)
(4.3504297 0.00048741034 0)
(3.2203889 0.00027098821 0)
(2.2718757 0.00013555577 0)
(1.476725 5.6230674e-05 0)
(0.81088568 1.6014727e-05 0)
(0.25391019 7.6214484e-07 0)
(29.715793 -0.0066308152 0)
(29.878544 -0.019014802 0)
(30.366164 -0.02407728 0)
(31.323359 -0.015375872 0)
(32.685309 0.00031652321 0)
(34.2985 0.016179418 0)
(35.948202 0.027949523 0)
(37.436406 0.035897752 0)
(38.499218 0.037435731 0)
(39.112885 0.035406813 0)
(39.131598 0.032143185 0)
(38.20336 0.028770072 0)
(36.438054 0.024682342 0)
(34.061313 0.020149524 0)
(31.076964 0.015550263 0)
(27.60281 0.011317672 0)
(23.954009 0.007833451 0)
(20.370786 0.0051559531 0)
(17.019059 0.0032407787 0)
(14.016438 0.0019581621 0)
(11.409324 0.0011482305 0)
(9.1817395 0.00065550846 0)
(7.2929181 0.00036422385 0)
(5.6976687 0.00019631118 0)
(4.3536953 0.00010151172 0)
(3.2234929 4.9416014e-05 0)
(2.2744851 2.1936654e-05 0)
(1.4786564 8.2549061e-06 0)
(0.8120595 2.0422713e-06 0)
(0.25431418 3.9701073e-07 0)
(29.704287 -0.0068038701 0)
(29.865831 -0.01944076 0)
(30.349811 -0.024506509 0)
(31.302857 -0.0155567 0)
(32.661428 0.00062356322 0)
(34.273034 0.017044476 0)
(35.922322 0.029028372 0)
(37.411453 0.037078753 0)
(38.475723 0.038633577 0)
(39.090543 0.036414869 0)
(39.110104 0.033055005 0)
(38.182169 0.029457062 0)
(36.416468 0.025289338 0)
(34.038242 0.020703203 0)
(31.051982 0.016101572 0)
(27.577171 0.011912046 0)
(23.929418 0.0085244246 0)
(20.348345 0.0059169143 0)
(16.999441 0.0040071034 0)
(13.999833 0.0026615005 0)
(11.395483 0.0017402819 0)
(9.1703065 0.0011173325 0)
(7.2835779 0.00070053672 0)
(5.6901643 0.00042541116 0)
(4.3478094 0.0002471475 0)
(3.2190321 0.00013472653 0)
(2.2712725 6.6409547e-05 0)
(1.47653 2.7290214e-05 0)
(0.8108726 7.6672877e-06 0)
(0.25393598 5.4534123e-07 0)
(29.692717 -0.0069152026 0)
(29.853078 -0.019660285 0)
(30.333519 -0.024725014 0)
(31.282491 -0.015671263 0)
(32.63771 0.00075225426 0)
(34.247722 0.017480651 0)
(35.896538 0.029574268 0)
(37.386487 0.037710383 0)
(38.452154 0.03929757 0)
(39.068139 0.037039274 0)
(39.088535 0.033555247 0)
(38.160909 0.029867486 0)
(36.394985 0.02559123 0)
(34.015406 0.020918451 0)
(31.027289 0.016250716 0)
(27.55212 0.011993075 0)
(23.905576 0.0085526202 0)
(20.32678 0.0059014224 0)
(16.980894 0.003960476 0)
(13.984593 0.002599361 0)
(11.383309 0.0016766359 0)
(9.1607482 0.0010613059 0)
(7.2761759 0.00065629847 0)
(5.6845171 0.0003934406 0)
(4.3435851 0.00022587588 0)
(3.2159622 0.00012170817 0)
(2.2691409 5.9346265e-05 0)
(1.4751633 2.4188184e-05 0)
(0.810131 6.7649854e-06 0)
(0.25370659 5.3440967e-07 0)
(29.681059 -0.0069900111 0)
(29.840309 -0.019777588 0)
(30.317365 -0.024859784 0)
(31.262372 -0.015774511 0)
(32.614282 0.00078284496 0)
(34.222694 0.017700205 0)
(35.87098 0.029869485 0)
(37.361653 0.038091352 0)
(38.428644 0.039745472 0)
(39.045717 0.03747283 0)
(39.066852 0.033952552 0)
(38.139424 0.03022273 0)
(36.37318 0.025894282 0)
(33.992155 0.021179187 0)
(31.002096 0.01647405 0)
(27.526495 0.012183041 0)
(23.881091 0.0087115362 0)
(20.304516 0.006031433 0)
(16.961598 0.004064494 0)
(13.96856 0.0026803992 0)
(11.370316 0.0017374423 0)
(9.1503809 0.00110509 0)
(7.2680114 0.00068645321 0)
(5.678186 0.00041322171 0)
(4.3387776 0.0002381339 0)
(3.2124209 0.00012880306 0)
(2.2666527 6.3032984e-05 0)
(1.4735511 2.5753623e-05 0)
(0.80924794 7.2071305e-06 0)
(0.2534307 5.4394018e-07 0)
(29.669362 -0.0070421798 0)
(29.827542 -0.019833643 0)
(30.301292 -0.024951498 0)
(31.242373 -0.015879263 0)
(32.590991 0.00075092099 0)
(34.197796 0.01778793 0)
(35.845528 0.030013751 0)
(37.336883 0.038313832 0)
(38.405178 0.040039356 0)
(39.02332 0.037761614 0)
(39.045148 0.03421745 0)
(38.117853 0.030460523 0)
(36.351238 0.026093959 0)
(33.968728 0.02134703 0)
(30.976691 0.016610003 0)
(27.500626 0.012289649 0)
(23.856345 0.0087922771 0)
(20.281994 0.0060900205 0)
(16.942068 0.0041055195 0)
(13.95233 0.0027080477 0)
(11.357169 0.0017555815 0)
(9.1398991 0.0011167361 0)
(7.2597661 0.00069369401 0)
(5.6718 0.00041754941 0)
(4.3339341 0.0002405892 0)
(3.2088572 0.0001300637 0)
(2.2641512 6.361315e-05 0)
(1.4719318 2.5989483e-05 0)
(0.80836189 7.2808397e-06 0)
(0.2531542 5.5006793e-07 0)
(29.657642 -0.0070812554 0)
(29.814784 -0.019856016 0)
(30.285284 -0.025025127 0)
(31.222458 -0.015991311 0)
(32.567793 0.00067958846 0)
(34.172988 0.017795984 0)
(35.820149 0.030067785 0)
(37.312161 0.038436305 0)
(38.38175 0.040232948 0)
(39.000948 0.037955528 0)
(39.023429 0.034391319 0)
(38.096216 0.030617919 0)
(36.329185 0.02622541 0)
(33.945153 0.021457226 0)
(30.951106 0.016700328 0)
(27.47455 0.012362667 0)
(23.831379 0.0088484404 0)
(20.259253 0.0061324969 0)
(16.922329 0.0041366895 0)
(13.935907 0.0027302044 0)
(11.343848 0.0017709254 0)
(9.1292639 0.0011270731 0)
(7.2513895 0.00070045317 0)
(5.665305 0.00042181098 0)
(4.329003 0.00024315503 0)
(3.2052257 0.0001315387 0)
(2.2616003 6.4377957e-05 0)
(1.4702796 2.6302667e-05 0)
(0.80745727 7.3598533e-06 0)
(0.25287174 5.4982327e-07 0)
(29.645911 -0.0071131257 0)
(29.802037 -0.019860623 0)
(30.269325 -0.025091928 0)
(31.2026 -0.016111197 0)
(32.544657 0.00058175267 0)
(34.148237 0.017753245 0)
(35.794817 0.030065144 0)
(37.287466 0.038492974 0)
(38.358348 0.040358751 0)
(38.978595 0.038081737 0)
(39.001699 0.034499658 0)
(38.074529 0.030717573 0)
(36.30705 0.026305264 0)
(33.921473 0.021522636 0)
(30.925397 0.016753893 0)
(27.448338 0.012406036 0)
(23.806271 0.0088823614 0)
(20.236372 0.0061579388 0)
(16.902459 0.0041553094 0)
(13.919365 0.002743802 0)
(11.330421 0.0017804837 0)
(9.1185385 0.0011334634 0)
(7.2429376 0.00070457056 0)
(5.6587487 0.00042434607 0)
(4.3240237 0.00024462104 0)
(3.2015579 0.0001322992 0)
(2.2590232 6.4721762e-05 0)
(1.4686101 2.6445756e-05 0)
(0.80654309 7.4198926e-06 0)
(0.25258626 5.5640764e-07 0)
(29.634174 -0.0071412687 0)
(29.789298 -0.019856777 0)
(30.253406 -0.025157376 0)
(31.182783 -0.016237668 0)
(32.521565 0.00046536613 0)
(34.123524 0.017675579 0)
(35.769515 0.030024716 0)
(37.262785 0.038506729 0)
(38.334964 0.040439687 0)
(38.956256 0.038161798 0)
(38.979958 0.034562034 0)
(38.052803 0.030776173 0)
(36.284854 0.026349854 0)
(33.897717 0.021557871 0)
(30.899603 0.016781018 0)
(27.422033 0.012426442 0)
(23.781069 0.0088980713 0)
(20.213403 0.0061695953 0)
(16.882508 0.0041640406 0)
(13.902748 0.0027502705 0)
(11.316927 0.0017850678 0)
(9.1077536 0.0011365844 0)
(7.2344349 0.00070659151 0)
(5.6521506 0.00042559464 0)
(4.319011 0.00024535572 0)
(3.1978644 0.00013269981 0)
(2.2564276 6.49171e-05 0)
(1.4669283 2.6518671e-05 0)
(0.80562205 7.4314792e-06 0)
(0.2522986 5.533327e-07 0)
(29.622434 -0.0071672915 0)
(29.776567 -0.019849251 0)
(30.237517 -0.025224634 0)
(31.162998 -0.016370131 0)
(32.498506 0.00033590464 0)
(34.098838 0.017574437 0)
(35.744231 0.029957966 0)
(37.23811 0.038488895 0)
(38.311592 0.0404886 0)
(38.933926 0.038209206 0)
(38.958207 0.034591683 0)
(38.031044 0.030804559 0)
(36.26261 0.026369611 0)
(33.873904 0.021571977 0)
(30.873748 0.016791688 0)
(27.395669 0.012435684 0)
(23.755812 0.0089049989 0)
(20.190384 0.0061754681 0)
(16.862513 0.0041689693 0)
(13.88609 0.0027540826 0)
(11.303396 0.0017879929 0)
(9.0969357 0.0011388038 0)
(7.2259036 0.00070817358 0)
(5.6455284 0.0004266538 0)
(4.3139787 0.00024602304 0)
(3.1941557 0.0001330948 0)
(2.2538208 6.5131437e-05 0)
(1.465239 2.6618153e-05 0)
(0.80469681 7.4648765e-06 0)
(0.25200961 5.5522969e-07 0)
(29.610691 -0.0071916776 0)
(29.763841 -0.019840274 0)
(30.221655 -0.025294779 0)
(31.143239 -0.016508252 0)
(32.475474 0.00019531441 0)
(34.074172 0.017455068 0)
(35.71896 0.029872292 0)
(37.213432 0.03844924 0)
(38.288225 0.040514668 0)
(38.911603 0.038234005 0)
(38.936444 0.034599531 0)
(38.009256 0.030813355 0)
(36.240324 0.026372006 0)
(33.850045 0.021571683 0)
(30.847849 0.016790685 0)
(27.369264 0.012435386 0)
(23.730516 0.0089050968 0)
(20.167331 0.0061758578 0)
(16.842486 0.0041694751 0)
(13.869403 0.0027546804 0)
(11.289836 0.0017885108 0)
(9.086091 0.0011391879 0)
(7.2173486 0.00070843361 0)
(5.6388862 0.00042681327 0)
(4.3089302 0.00024610622 0)
(3.1904343 0.00013312808 0)
(2.2512047 6.5140392e-05 0)
(1.4635435 2.6611489e-05 0)
(0.80376805 7.455671e-06 0)
(0.25171949 5.5197902e-07 0)
(29.598946 -0.0072148974 0)
(29.751121 -0.019831394 0)
(30.205819 -0.025368749 0)
(31.123504 -0.016650672 0)
(32.452465 4.6970037e-05 0)
(34.049521 0.017322027 0)
(35.693694 0.029773918 0)
(37.188748 0.038394351 0)
(38.264862 0.040523094 0)
(38.889284 0.038242437 0)
(38.91467 0.034592747 0)
(37.987442 0.030809849 0)
(36.218006 0.02636389 0)
(33.826153 0.02156173 0)
(30.821921 0.016780684 0)
(27.342835 0.012426452 0)
(23.705204 0.0088988526 0)
(20.144268 0.0061715113 0)
(16.822454 0.0041669293 0)
(13.85271 0.0027536937 0)
(11.27627 0.0017882861 0)
(9.0752394 0.0011392131 0)
(7.208787 0.00070856864 0)
(5.6322381 0.00042697263 0)
(4.3038769 0.00024624118 0)
(3.1867093 0.00013322538 0)
(2.248586 6.5197955e-05 0)
(1.4618462 2.6645863e-05 0)
(0.80283828 7.4758723e-06 0)
(0.25142904 5.5395707e-07 0)
(29.587199 -0.0072376776 0)
(29.738409 -0.01982338 0)
(30.190005 -0.025445115 0)
(31.10379 -0.016796083 0)
(32.429477 -0.00010783766 0)
(34.024882 0.017179667 0)
(35.668433 0.029667174 0)
(37.164054 0.038326842 0)
(38.241501 0.040515207 0)
(38.866969 0.038236534 0)
(38.892884 0.034573436 0)
(37.965606 0.030793346 0)
(36.195659 0.026345514 0)
(33.802235 0.021542194 0)
(30.795973 0.016763497 0)
(27.316395 0.012412915 0)
(23.679889 0.008887691 0)
(20.121209 0.0061634221 0)
(16.802429 0.0041616053 0)
(13.836023 0.0027502931 0)
(11.262707 0.0017861473 0)
(9.0643889 0.0011378912 0)
(7.2002247 0.00070773829 0)
(5.6255882 0.00042645828 0)
(4.2988213 0.00024593787 0)
(3.182982 0.00013304821 0)
(2.2459653 6.509924e-05 0)
(1.4601475 2.6596194e-05 0)
(0.80190769 7.4558886e-06 0)
(0.25113832 5.5093309e-07 0)
(29.575451 -0.0072605129 0)
(29.725702 -0.019816184 0)
(30.174213 -0.025523503 0)
(31.084095 -0.016943543 0)
(32.406507 -0.00026689172 0)
(34.000252 0.017029349 0)
(35.643174 0.029554736 0)
(37.139351 0.038251295 0)
(38.21814 0.04049463 0)
(38.844658 0.038220607 0)
(38.871087 0.034547595 0)
(37.943747 0.030768897 0)
(36.173287 0.026321695 0)
(33.778293 0.021519741 0)
(30.770008 0.016744092 0)
(27.289949 0.012398158 0)
(23.654575 0.008876691 0)
(20.098157 0.0061558915 0)
(16.782414 0.0041566711 0)
(13.819345 0.0027471229 0)
(11.249151 0.0017842843 0)
(9.0535423 0.0011369167 0)
(7.1916645 0.00070725933 0)
(5.6189393 0.00042624179 0)
(4.293766 0.00024585964 0)
(3.1792546 0.00013304287 0)
(2.2433444 6.5121855e-05 0)
(1.4584485 2.6619697e-05 0)
(0.8009769 7.4667546e-06 0)
(0.25084751 5.5132645e-07 0)
(29.563699 -0.0072834307 0)
(29.712999 -0.01980911 0)
(30.158441 -0.025602778 0)
(31.064419 -0.017093341 0)
(32.383555 -0.00042999608 0)
(33.97563 0.016873602 0)
(35.617914 0.029438236 0)
(37.114634 0.03816866 0)
(38.19478 0.040463922 0)
(38.82235 0.038197671 0)
(38.849278 0.034518836 0)
(37.921868 0.030740731 0)
(36.150892 0.026294226 0)
(33.754332 0.021494132 0)
(30.744033 0.016720955 0)
(27.2635 0.012378729 0)
(23.629267 0.0088624651 0)
(20.075117 0.0061455153 0)
(16.762413 0.004149394 0)
(13.802679 0.0027423779 0)
(11.235603 0.0017811891 0)
(9.0427024 0.0011349264 0)
(7.1831091 0.00070600914 0)
(5.6122938 0.00042547267 0)
(4.288713 0.00024539981 0)
(3.1755288 0.00013278604 0)
(2.2407245 6.4994301e-05 0)
(1.4567501 2.6561122e-05 0)
(0.80004639 7.4466659e-06 0)
(0.25055678 5.4927879e-07 0)
(29.551944 -0.0073064897 0)
(29.7003 -0.019802145 0)
(30.142689 -0.025682641 0)
(31.04476 -0.017244394 0)
(32.36062 -0.00059566709 0)
(33.951015 0.016713662 0)
(35.592654 0.029319121 0)
(37.089904 0.038079839 0)
(38.171419 0.040424085 0)
(38.800045 0.038167941 0)
(38.827459 0.034486941 0)
(37.899973 0.030709349 0)
(36.128479 0.026263132 0)
(33.730358 0.02146404 0)
(30.718054 0.01669602 0)
(27.23706 0.01235958 0)
(23.603976 0.0088476691 0)
(20.052101 0.0061350851 0)
(16.742437 0.0041428186 0)
(13.786036 0.002738658 0)
(11.222074 0.0017791612 0)
(9.0318756 0.0011337961 0)
(7.1745634 0.00070543955 0)
(5.6056555 0.00042522816 0)
(4.2836654 0.00024531723 0)
(3.1718068 0.00013278398 0)
(2.2381072 6.5017625e-05 0)
(1.4550534 2.6584611e-05 0)
(0.79911678 7.4583203e-06 0)
(0.25026633 5.4880386e-07 0)
(29.540185 -0.0073301294 0)
(29.687604 -0.019796002 0)
(30.126958 -0.025762522 0)
(31.025119 -0.017395817 0)
(32.337701 -0.00076324372 0)
(33.926405 0.016550824 0)
(35.567392 0.029199349 0)
(37.065159 0.037987181 0)
(38.148056 0.040375422 0)
(38.777743 0.038130611 0)
(38.80563 0.03445108 0)
(37.87806 0.03067389 0)
(36.106048 0.026229107 0)
(33.706371 0.021432088 0)
(30.692071 0.016668337 0)
(27.210626 0.012337802 0)
(23.5787 0.0088306004 0)
(20.029105 0.0061227019 0)
(16.722483 0.0041342493 0)
(13.769411 0.00273282 0)
(11.208558 0.0017752632 0)
(9.0210582 0.0011312295 0)
(7.1660239 0.00070374227 0)
(5.5990211 0.00042412561 0)
(4.2786201 0.00024462506 0)
(3.1680862 0.00013234304 0)
(2.2354907 6.4756193e-05 0)
(1.4533571 2.6458988e-05 0)
(0.79818737 7.4200726e-06 0)
(0.24997594 5.4612696e-07 0)
(29.528422 -0.0073546345 0)
(29.67491 -0.019790812 0)
(30.111245 -0.02584196 0)
(31.005495 -0.017546807 0)
(32.314797 -0.00093180752 0)
(33.901799 0.016386818 0)
(35.542127 0.029079839 0)
(37.040398 0.037889742 0)
(38.124693 0.040317078 0)
(38.755444 0.038084987 0)
(38.783789 0.034411962 0)
(37.856131 0.030636102 0)
(36.0836 0.026193713 0)
(33.682373 0.021400603 0)
(30.666087 0.016640314 0)
(27.184203 0.012314719 0)
(23.553443 0.0088139034 0)
(20.006134 0.006110902 0)
(16.702556 0.0041260999 0)
(13.752811 0.0027274252 0)
(11.195063 0.0017718981 0)
(9.0102587 0.0011292689 0)
(7.1574988 0.00070264404 0)
(5.5923981 0.00042354818 0)
(4.2735836 0.00024436299 0)
(3.1643722 0.00013227669 0)
(2.2328789 6.4769605e-05 0)
(1.4516639 2.6481962e-05 0)
(0.79725961 7.4291369e-06 0)
(0.24968604 5.4596838e-07 0)
(29.516655 -0.0073797719 0)
(29.662218 -0.019785832 0)
(30.095551 -0.025920981 0)
(30.985887 -0.017698042 0)
(32.291908 -0.0011009007 0)
(33.877199 0.016221973 0)
(35.516862 0.028960525 0)
(37.015625 0.037789761 0)
(38.10133 0.040252708 0)
(38.733151 0.038033147 0)
(38.761938 0.034370723 0)
(37.834188 0.030596612 0)
(36.061137 0.026155445 0)
(33.658366 0.021364663 0)
(30.640106 0.016610343 0)
(27.157793 0.012291137 0)
(23.528209 0.0087955173 0)
(19.983191 0.0060973191 0)
(16.682658 0.0041167328 0)
(13.736235 0.0027213254 0)
(11.181587 0.0017678934 0)
(8.9994728 0.0011266651 0)
(7.1489837 0.00070096558 0)
(5.5857823 0.00042246246 0)
(4.2685523 0.00024366626 0)
(3.1606617 0.00013183036 0)
(2.2302694 6.4511007e-05 0)
(1.449972 2.6359956e-05 0)
(0.79633256 7.393235e-06 0)
(0.24939636 5.4348744e-07 0)
(29.504885 -0.0074052272 0)
(29.649528 -0.019780689 0)
(30.079875 -0.025998908 0)
(30.966295 -0.017849351 0)
(32.269035 -0.0012714753 0)
(33.852602 0.016055301 0)
(35.491597 0.02884015 0)
(36.990839 0.03768871 0)
(38.077969 0.040186986 0)
(38.710863 0.037977905 0)
(38.740079 0.034327872 0)
(37.812232 0.030555355 0)
(36.038663 0.02611612 0)
(33.634355 0.021327461 0)
(30.61413 0.016578849 0)
(27.131403 0.012266797 0)
(23.503002 0.0087768397 0)
(19.960282 0.0060842123 0)
(16.662794 0.0041083184 0)
(13.719689 0.0027163167 0)
(11.168135 0.0017650234 0)
(8.9887044 0.0011250294 0)
(7.1404813 0.00070012735 0)
(5.5791757 0.00042210258 0)
(4.2635274 0.00024355707 0)
(3.1569558 0.00013186376 0)
(2.2276629 6.4586848e-05 0)
(1.448282 2.6414733e-05 0)
(0.79540652 7.4096483e-06 0)
(0.24910698 5.4186138e-07 0)
(29.49311 -0.0074305451 0)
(29.636837 -0.019775767 0)
(30.064219 -0.026076449 0)
(30.946719 -0.017999808 0)
(32.246176 -0.0014424594 0)
(33.828009 0.01588732 0)
(35.46633 0.028718539 0)
(36.966037 0.03758656 0)
(38.05461 0.040118598 0)
(38.688582 0.037919899 0)
(38.71821 0.034282531 0)
(37.790264 0.030511409 0)
(36.016178 0.026075259 0)
(33.610339 0.021290607 0)
(30.588162 0.016545871 0)
(27.10503 0.012239328 0)
(23.477824 0.0087561373 0)
(19.937408 0.0060691071 0)
(16.642966 0.0040975216 0)
(13.703175 0.0027087885 0)
(11.154708 0.0017599163 0)
(8.9779566 0.0011216165 0)
(7.1319949 0.00069785126 0)
(5.5725812 0.00042061808 0)
(4.2585117 0.00024261548 0)
(3.1532565 0.00013125268 0)
(2.2250611 6.422179e-05 0)
(1.4465951 2.6241488e-05 0)
(0.79448214 7.3609425e-06 0)
(0.24881812 5.4048916e-07 0)
(29.481331 -0.0074550443 0)
(29.624147 -0.019771033 0)
(30.048579 -0.026153746 0)
(30.927159 -0.018149538 0)
(32.223331 -0.0016148022 0)
(33.803419 0.015717348 0)
(35.44106 0.028596213 0)
(36.941226 0.037484908 0)
(38.031247 0.040045553 0)
(38.666298 0.037860665 0)
(38.696331 0.034236946 0)
(37.768283 0.030467876 0)
(35.993681 0.026034817 0)
(33.586319 0.02125401 0)
(30.562201 0.016515235 0)
(27.078679 0.012215252 0)
(23.452676 0.0087379411 0)
(19.91457 0.006056 0)
(16.623175 0.0040885456 0)
(13.686695 0.0027029559 0)
(11.141311 0.0017563259 0)
(8.9672332 0.001119551 0)
(7.1235282 0.00069671922 0)
(5.5660024 0.00042004935 0)
(4.253508 0.00024238483 0)
(3.1495662 0.00013122707 0)
(2.2224657 6.4266279e-05 0)
(1.4449123 2.6278438e-05 0)
(0.79356003 7.3716761e-06 0)
(0.24852997 5.3953751e-07 0)
(29.469545 -0.0074782865 0)
(29.611456 -0.019766091 0)
(30.032956 -0.026231934 0)
(30.907615 -0.01829907 0)
(32.200499 -0.0017879188 0)
(33.778832 0.015545801 0)
(35.415788 0.028473548 0)
(36.916411 0.037381916 0)
(38.007878 0.039968967 0)
(38.644007 0.037800341 0)
(38.674442 0.034191661 0)
(37.746291 0.030425068 0)
(35.971173 0.025994044 0)
(33.562294 0.021215309 0)
(30.536245 0.016482676 0)
(27.052345 0.012189805 0)
(23.427554 0.0087178774 0)
(19.891762 0.0060412765 0)
(16.603415 0.0040785116 0)
(13.670241 0.0026964074 0)
(11.127933 0.0017520143 0)
(8.9565232 0.0011167444 0)
(7.1150705 0.00069490401 0)
(5.5594292 0.00041887005 0)
(4.2485078 0.00024162846 0)
(3.1458779 0.0001307403 0)
(2.2198713 6.3980634e-05 0)
(1.4432301 2.6144959e-05 0)
(0.79263817 7.3361206e-06 0)
(0.24824187 5.385655e-07 0)
(29.457752 -0.0075010026 0)
(29.598766 -0.019761222 0)
(30.017351 -0.026310832 0)
(30.888086 -0.018449671 0)
(32.177682 -0.001962617 0)
(33.754247 0.015372811 0)
(35.390515 0.028350115 0)
(36.891592 0.037278024 0)
(37.984504 0.039892737 0)
(38.621708 0.037740134 0)
(38.652544 0.034146181 0)
(37.724288 0.030381945 0)
(35.948657 0.025953886 0)
(33.538268 0.021178743 0)
(30.5103 0.016450542 0)
(27.026032 0.012163815 0)
(23.402463 0.0086987185 0)
(19.868993 0.0060278725 0)
(16.583695 0.0040697147 0)
(13.653822 0.0026910136 0)
(11.114584 0.0017488402 0)
(8.9458363 0.0011149008 0)
(7.1066309 0.00069394416 0)
(5.5528702 0.00041844449 0)
(4.2435184 0.00024149617 0)
(3.1421976 0.00013079308 0)
(2.2172827 6.4087811e-05 0)
(1.4415515 2.6218855e-05 0)
(0.79171832 7.3537526e-06 0)
(0.24795441 5.3502009e-07 0)
(29.445954 -0.0075239533 0)
(29.586079 -0.019757104 0)
(30.001765 -0.026390098 0)
(30.868574 -0.018600343 0)
(32.154879 -0.00213864 0)
(33.729664 0.015197133 0)
(35.365239 0.02822565 0)
(36.86677 0.037174146 0)
(37.961125 0.039818121 0)
(38.599403 0.037680511 0)
(38.630639 0.034099553 0)
(37.702276 0.03033735 0)
(35.926132 0.025912786 0)
(33.51424 0.021141911 0)
(30.484364 0.016418842 0)
(26.999741 0.012138212 0)
(23.377403 0.0086791646 0)
(19.846259 0.0060135048 0)
(16.564009 0.0040593191 0)
(13.637434 0.00268372 0)
(11.101262 0.0017438486 0)
(8.9351711 0.0011115173 0)
(7.0982088 0.00069164314 0)
(5.5463251 0.0004169072 0)
(4.2385397 0.00024047928 0)
(3.1385253 0.00013008826 0)
(2.2146996 6.3647692e-05 0)
(1.4398766 2.6008009e-05 0)
(0.7908005 7.2975677e-06 0)
(0.24766758 5.3436309e-07 0)
(29.434153 -0.0075471668 0)
(29.573394 -0.019753811 0)
(29.986198 -0.02646931 0)
(30.849078 -0.018750706 0)
(32.13209 -0.0023152358 0)
(33.705083 0.015020734 0)
(35.33996 0.028100917 0)
(36.841943 0.037069072 0)
(37.93774 0.03974355 0)
(38.57709 0.037620586 0)
(38.608725 0.034052289 0)
(37.680254 0.030293309 0)
(35.903597 0.025871706 0)
(33.490209 0.021104179 0)
(30.458436 0.016387937 0)
(26.973472 0.012114703 0)
(23.352371 0.0086611748 0)
(19.823559 0.0060006603 0)
(16.544359 0.0040508033 0)
(13.621077 0.0026783335 0)
(11.087964 0.0017406013 0)
(8.9245253 0.0011096982 0)
(7.0898015 0.0006906915 0)
(5.5397911 0.00041647957 0)
(4.2335694 0.00024035898 0)
(3.134859 0.00013015484 0)
(2.2121208 6.3756749e-05 0)
(1.4382044 2.6074183e-05 0)
(0.78988411 7.31395e-06 0)
(0.24738119 5.3285099e-07 0)
(29.422348 -0.007570694 0)
(29.560711 -0.019751035 0)
(29.970648 -0.026548015 0)
(30.829599 -0.018900423 0)
(32.109315 -0.0024927062 0)
(33.680503 0.01484242 0)
(35.314679 0.027976507 0)
(36.817113 0.036964097 0)
(37.91435 0.039668482 0)
(38.554771 0.037559705 0)
(38.586803 0.034004544 0)
(37.658223 0.030249446 0)
(35.881056 0.025830101 0)
(33.466178 0.021064987 0)
(30.432519 0.016353314 0)
(26.947223 0.012086386 0)
(23.327369 0.0086394087 0)
(19.800892 0.0059847409 0)
(16.524741 0.0040398507 0)
(13.604747 0.0026710565 0)
(11.074687 0.0017357365 0)
(8.9138938 0.0011064747 0)
(7.0814042 0.00068855669 0)
(5.5332638 0.00041505847 0)
(4.2286034 0.00023943006 0)
(3.1311956 0.00012953253 0)
(2.2095437 6.3374873e-05 0)
(1.4365333 2.5892854e-05 0)
(0.78896829 7.2668801e-06 0)
(0.24709497 5.3244798e-07 0)
(29.410538 -0.0075944429 0)
(29.548029 -0.019748014 0)
(29.955116 -0.026626415 0)
(30.810136 -0.019050613 0)
(32.086555 -0.0026705655 0)
(33.655925 0.014663306 0)
(35.289395 0.027852016 0)
(36.79228 0.036858139 0)
(37.890956 0.039592672 0)
(38.532447 0.03749768 0)
(38.564875 0.033955988 0)
(37.636184 0.030204627 0)
(35.858509 0.025788596 0)
(33.44215 0.021027579 0)
(30.406617 0.016320785 0)
(26.921002 0.012059999 0)
(23.302406 0.0086198676 0)
(19.778271 0.0059711284 0)
(16.505169 0.004030819 0)
(13.588459 0.0026655177 0)
(11.061444 0.0017325347 0)
(8.9032913 0.0011046893 0)
(7.07303 0.00068769968 0)
(5.5267548 0.00041474397 0)
(4.2236514 0.0002394059 0)
(3.1275426 0.0001296951 0)
(2.2069741 6.3566801e-05 0)
(1.434867 2.6010174e-05 0)
(0.78805512 7.2945323e-06 0)
(0.24680959 5.2858537e-07 0)
(29.398725 -0.0076183594 0)
(29.535349 -0.019744681 0)
(29.939603 -0.026703843 0)
(30.790689 -0.019201102 0)
(32.063808 -0.0028498686 0)
(33.631348 0.014482685 0)
(35.26411 0.02772686 0)
(36.767445 0.036751394 0)
(37.867557 0.039517322 0)
(38.510118 0.037435768 0)
(38.54294 0.033907276 0)
(37.614137 0.030159064 0)
(35.835954 0.025746509 0)
(33.418121 0.020989553 0)
(30.380725 0.01628943 0)
(26.894805 0.012035779 0)
(23.277474 0.0086009132 0)
(19.755686 0.0059569882 0)
(16.485633 0.0040205999 0)
(13.572202 0.0026583782 0)
(11.048228 0.0017276463 0)
(8.8927089 0.0011013664 0)
(7.0646715 0.00068542207 0)
(5.5202577 0.00041319552 0)
(4.2187084 0.00023835363 0)
(3.1238961 0.00012894209 0)
(2.2044088 6.3086806e-05 0)
(1.4332035 2.577998e-05 0)
(0.78714348 7.2356701e-06 0)
(0.24652468 5.286104e-07 0)
(29.386907 -0.007642573 0)
(29.52267 -0.01974168 0)
(29.924109 -0.026780431 0)
(30.771259 -0.019350572 0)
(32.041075 -0.003029505 0)
(33.606772 0.014300118 0)
(35.238822 0.027601131 0)
(36.742605 0.036644916 0)
(37.844154 0.039442977 0)
(38.487782 0.037375271 0)
(38.520997 0.033860797 0)
(37.592082 0.030115979 0)
(35.813392 0.025706772 0)
(33.394091 0.020952421 0)
(30.354843 0.016257352 0)
(26.868629 0.012010272 0)
(23.252573 0.0085816343 0)
(19.733137 0.0059432884 0)
(16.466133 0.0040116117 0)
(13.555976 0.0026526913 0)
(11.035037 0.0017241864 0)
(8.8821463 0.0010993994 0)
(7.056328 0.00068438763 0)
(5.513772 0.00041274186 0)
(4.2137738 0.00023823033 0)
(3.1202556 0.00012901908 0)
(2.2018479 6.3212823e-05 0)
(1.4315427 2.5856765e-05 0)
(0.78623331 7.253287e-06 0)
(0.24624022 5.2636745e-07 0)
(29.375085 -0.0076672214 0)
(29.509993 -0.019739213 0)
(29.908632 -0.026855636 0)
(30.751844 -0.019498884 0)
(32.018356 -0.0032096831 0)
(33.582197 0.014117293 0)
(35.213531 0.027476052 0)
(36.717762 0.036537183 0)
(37.820747 0.039367178 0)
(38.46544 0.037314016 0)
(38.499048 0.033815115 0)
(37.570018 0.030073384 0)
(35.790824 0.02566704 0)
(33.370061 0.020915161 0)
(30.328973 0.016223806 0)
(26.842477 0.011981835 0)
(23.227704 0.0085597344 0)
(19.710625 0.00592727 0)
(16.44667 0.0040004368 0)
(13.539783 0.0026451744 0)
(11.021871 0.0017191344 0)
(8.871603 0.0010960359 0)
(7.0479989 0.00068214548 0)
(5.5072965 0.00041124744 0)
(4.2088466 0.00023725773 0)
(3.1166203 0.00012836583 0)
(2.1992903 6.2809582e-05 0)
(1.4298842 2.5664447e-05 0)
(0.78532432 7.2034766e-06 0)
(0.24595614 5.2631385e-07 0)
(29.363258 -0.0076921407 0)
(29.497315 -0.019736488 0)
(29.893171 -0.026929702 0)
(30.732446 -0.019646569 0)
(31.99565 -0.0033903664 0)
(33.557622 0.013932574 0)
(35.188237 0.027350952 0)
(36.692916 0.036429082 0)
(37.797335 0.039290682 0)
(38.443091 0.037251732 0)
(38.477091 0.033769395 0)
(37.547946 0.030030963 0)
(35.768248 0.025628024 0)
(33.346031 0.02087993 0)
(30.303114 0.016195109 0)
(26.81635 0.011960302 0)
(23.20287 0.0085435251 0)
(19.688155 0.0059158775 0)
(16.42725 0.0039928983 0)
(13.523629 0.0026406926 0)
(11.008739 0.0017167203 0)
(8.8610878 0.001094843 0)
(7.0396924 0.00068173367 0)
(5.5008391 0.00041126396 0)
(4.2039331 0.00023748357 0)
(3.1129952 0.00012872052 0)
(2.19674 6.3127748e-05 0)
(1.4282302 2.5842682e-05 0)
(0.7844179 7.2442131e-06 0)
(0.24567284 5.2137839e-07 0)
(29.351426 -0.0077168099 0)
(29.484636 -0.019733288 0)
(29.877728 -0.027003077 0)
(30.713063 -0.019794729 0)
(31.972959 -0.0035722246 0)
(33.533046 0.013747123 0)
(35.162941 0.027225821 0)
(36.668068 0.036320245 0)
(37.773919 0.039215118 0)
(38.420737 0.037189693 0)
(38.455127 0.033723573 0)
(37.525865 0.029989366 0)
(35.745663 0.025589865 0)
(33.321998 0.020845144 0)
(30.277261 0.016165455 0)
(26.79024 0.011936894 0)
(23.178061 0.0085253111 0)
(19.665714 0.0059022525 0)
(16.40786 0.0039830228 0)
(13.5075 0.0026337085 0)
(10.995627 0.0017118385 0)
(8.8505874 0.0010914594 0)
(7.0313971 0.00067935873 0)
(5.4943899 0.00040958178 0)
(4.1990257 0.00023629326 0)
(3.1093745 0.00012783851 0)
(2.1941927 6.25493e-05 0)
(1.4265783 2.556257e-05 0)
(0.78351251 7.1752402e-06 0)
(0.24538987 5.2267205e-07 0)
(29.339589 -0.0077407606 0)
(29.471956 -0.019730256 0)
(29.862303 -0.027076384 0)
(30.693697 -0.019942078 0)
(31.950281 -0.0037551196 0)
(33.508471 0.013559614 0)
(35.137643 0.027100012 0)
(36.643217 0.036210721 0)
(37.750498 0.039141033 0)
(38.398377 0.037128846 0)
(38.433156 0.033678479 0)
(37.503777 0.029949348 0)
(35.723071 0.025553077 0)
(33.297965 0.020810752 0)
(30.251419 0.016134364 0)
(26.76415 0.01191076 0)
(23.153282 0.0085058212 0)
(19.643309 0.0058885465 0)
(16.388506 0.0039740857 0)
(13.491404 0.0026280339 0)
(10.982543 0.0017083416 0)
(8.8401096 0.0010894366 0)
(7.0231198 0.00067829303 0)
(5.4879549 0.00040913871 0)
(4.1941293 0.00023619883 0)
(3.1057619 0.00012797036 0)
(2.1916512 6.273108e-05 0)
(1.42493 2.5669603e-05 0)
(0.78260916 7.200078e-06 0)
(0.24510754 5.1990926e-07 0)
(29.327747 -0.0077637243 0)
(29.459277 -0.019727979 0)
(29.846895 -0.027150474 0)
(30.674348 -0.020088585 0)
(31.927617 -0.0039385841 0)
(33.483895 0.013370841 0)
(35.112341 0.026974733 0)
(36.618362 0.036101349 0)
(37.727074 0.039067197 0)
(38.376011 0.037067661 0)
(38.41118 0.033632334 0)
(37.481681 0.029907119 0)
(35.700472 0.025513595 0)
(33.273931 0.020773409 0)
(30.225587 0.016102648 0)
(26.738084 0.011885656 0)
(23.128533 0.008486016 0)
(19.620937 0.0058738771 0)
(16.369185 0.0039637252 0)
(13.475336 0.0026209986 0)
(10.96948 0.0017035512 0)
(8.8296487 0.0010861669 0)
(7.0148549 0.00067602441 0)
(5.4815288 0.00040755657 0)
(4.1892391 0.00023510759 0)
(3.1021537 0.00012716523 0)
(2.1891125 6.2201415e-05 0)
(1.4232835 2.5413001e-05 0)
(0.78170674 7.1359016e-06 0)
(0.24482549 5.2083101e-07 0)
(29.3159 -0.0077857854 0)
(29.446598 -0.019725978 0)
(29.831503 -0.027225057 0)
(30.655014 -0.020234633 0)
(31.904966 -0.0041229837 0)
(33.459318 0.013180808 0)