/*--------------------------------*- C++ -*----------------------------------*\
| =========                 |                                                 |
| \\      /  F ield         | OpenFOAM: The Open Source CFD Toolbox           |
|  \\    /   O peration     | Version:  v2012                                 |
|   \\  /    A nd           | Website:  www.openfoam.com                      |
|    \\/     M anipulation  |                                                 |
\*---------------------------------------------------------------------------*/
FoamFile
{
    version     2.0;
    format      ascii;
    class       volScalarField;
    location    "350";
    object      alphat;
}
// * * * * * * * * * * * * * * * * * * * * * * * * * * * * * * * * * * * * * //

dimensions      [1 -1 -1 0 0 0 0];


internalField   nonuniform List<scalar> 
24000
(
0.00091609727
0.00024422985
0.00022198101
0.00018517456
9.4496019e-05
4.7223787e-05
4.8957411e-05
4.2955362e-05
3.2051345e-05
2.2234157e-05
1.634482e-05
7.8680402e-06
3.2153704e-06
1.8446064e-06
1.1075825e-06
6.6993594e-07
3.9143009e-07
2.0467624e-07
8.4609384e-08
3.0354123e-08
9.6915793e-09
2.8081499e-09
7.4256091e-10
1.771659e-10
3.7032334e-11
6.4827302e-12
9.5718078e-13
2.2074344e-13
1.7699792e-13
1.8825851e-13
0.0009161311
0.00024155884
0.00021667277
0.00017803775
8.9977514e-05
4.689832e-05
4.8618023e-05
4.2857144e-05
3.2123352e-05
2.233665e-05
1.6414338e-05
7.9225076e-06
3.2306484e-06
1.8480028e-06
1.1122077e-06
6.7406508e-07
3.9457014e-07
2.0643979e-07
8.5397074e-08
3.0642195e-08
9.783567e-09
2.8349615e-09
7.4976e-10
1.7892144e-10
3.7413934e-11
6.5598775e-12
9.7894372e-13
2.3583035e-13
1.9292755e-13
2.0512493e-13
0.00091617068
0.0002425829
0.00022032214
0.00018501643
9.3691681e-05
4.7544367e-05
4.8729501e-05
4.2753116e-05
3.2034591e-05
2.2264255e-05
1.6324627e-05
7.9394393e-06
3.2364702e-06
1.8509153e-06
1.1140483e-06
6.7529514e-07
3.9540337e-07
2.0765612e-07
8.6057503e-08
3.092253e-08
9.8812767e-09
2.8643258e-09
7.5761325e-10
1.8079747e-10
3.7802047e-11
6.6223013e-12
9.818173e-13
2.3018992e-13
1.8596769e-13
1.9774016e-13
0.00091620935
0.00024324052
0.00022188018
0.00018733094
9.4627013e-05
4.766481e-05
4.8637498e-05
4.2674352e-05
3.1978748e-05
2.2221474e-05
1.6276657e-05
7.9399831e-06
3.2372609e-06
1.8522494e-06
1.1144581e-06
6.7539978e-07
3.9531197e-07
2.0728881e-07
8.5813096e-08
3.0806096e-08
9.837808e-09
2.8506997e-09
7.5387378e-10
1.7989033e-10
3.7612368e-11
6.5910619e-12
9.796241e-13
2.3210316e-13
1.8844405e-13
2.0037402e-13
0.00091624661
0.00024409836
0.00022333449
0.00018904028
9.5202149e-05
4.7767819e-05
4.858032e-05
4.2630472e-05
3.1942138e-05
2.2193303e-05
1.6253118e-05
7.9351391e-06
3.2368108e-06
1.8518197e-06
1.1141934e-06
6.7534005e-07
3.9530161e-07
2.0737266e-07
8.5865485e-08
3.0829463e-08
9.8460276e-09
2.8531512e-09
7.5452191e-10
1.8004366e-10
3.7643851e-11
6.5960298e-12
9.7974601e-13
2.3152133e-13
1.8773898e-13
1.996231e-13
0.00091628188
0.0002448011
0.00022427974
0.00018998419
9.5499144e-05
4.7839181e-05
4.8522652e-05
4.25954e-05
3.1910712e-05
2.2165806e-05
1.6231854e-05
7.9265158e-06
3.235123e-06
1.8513903e-06
1.1138005e-06
6.7508696e-07
3.9510758e-07
2.071869e-07
8.5766469e-08
3.0787556e-08
9.8313028e-09
2.8486704e-09
7.5331065e-10
1.7975238e-10
3.7583008e-11
6.5855761e-12
9.7841508e-13
2.314224e-13
1.8774059e-13
1.9962517e-13
0.00091631461
0.00024536939
0.00022493019
0.00019060054
9.5749986e-05
4.7908815e-05
4.8472924e-05
4.2564271e-05
3.1882323e-05
2.2141191e-05
1.6214046e-05
7.9159837e-06
3.2328589e-06
1.85063e-06
1.1132367e-06
6.7474366e-07
3.9487486e-07
2.0700018e-07
8.5674396e-08
3.075074e-08
9.8188404e-09
2.8449637e-09
7.523225e-10
1.7951679e-10
3.7533994e-11
6.5770585e-12
9.771791e-13
2.3115186e-13
1.8752852e-13
1.9939934e-13
0.00091634431
0.00024581968
0.00022538589
0.00019104852
9.5983761e-05
4.7977127e-05
4.8426346e-05
4.2533504e-05
3.1854459e-05
2.2117298e-05
1.6197424e-05
7.9043489e-06
3.2302623e-06
1.8497761e-06
1.1126178e-06
6.7436034e-07
3.9461243e-07
2.0678342e-07
8.5566384e-08
3.0707181e-08
9.8040048e-09
2.8405332e-09
7.5113827e-10
1.7923396e-10
3.7475105e-11
6.5668506e-12
9.7573802e-13
2.3087805e-13
1.8733101e-13
1.9918909e-13
0.00091637059
0.00024618618
0.00022572914
0.00019141991
9.6212097e-05
4.8045928e-05
4.8381491e-05
4.2502951e-05
3.1827009e-05
2.2093801e-05
1.6181654e-05
7.8921016e-06
3.2274944e-06
1.8488569e-06
1.1119636e-06
6.7395433e-07
3.9433569e-07
2.0655672e-07
8.5453829e-08
3.0661918e-08
9.788619e-09
2.835944e-09
7.4991259e-10
1.7894139e-10
3.7414203e-11
6.5562875e-12
9.7423624e-13
2.3058135e-13
1.8711151e-13
1.989553e-13
0.00091639312
0.0002464963
0.00022600803
0.00019175558
9.6438623e-05
4.811549e-05
4.8337533e-05
4.2472465e-05
3.1799759e-05
2.2070475e-05
1.6166068e-05
7.8794879e-06
3.2246341e-06
1.8479107e-06
1.111295e-06
6.7353835e-07
3.9405214e-07
2.0632385e-07
8.53382e-08
3.0615428e-08
9.7728202e-09
2.8312329e-09
7.4865462e-10
1.7864118e-10
3.7351718e-11
6.5454515e-12
9.7269619e-13
2.3027749e-13
1.8688683e-13
1.9871594e-13
0.00091641163
0.00024677039
0.00022625096
0.00019207436
9.6664698e-05
4.8185863e-05
4.8294187e-05
4.2442061e-05
3.1772628e-05
2.2047221e-05
1.6150879e-05
7.8666545e-06
3.2217268e-06
1.8469526e-06
1.1106209e-06
6.7311854e-07
3.9376596e-07
2.0608839e-07
8.5221268e-08
3.0568416e-08
9.7568459e-09
2.82647e-09
7.4738301e-10
1.7833773e-10
3.7288567e-11
6.5344998e-12
9.7113849e-13
2.2996871e-13
1.8665781e-13
1.9847191e-13
0.00091642591
0.00024702218
0.00022647417
0.0001923858
9.6891484e-05
4.8257075e-05
4.8251175e-05
4.2411661e-05
3.1745535e-05
2.2023981e-05
1.6135857e-05
7.8536842e-06
3.2187976e-06
1.8459925e-06
1.1099474e-06
6.7269894e-07
3.9347981e-07
2.0585226e-07
8.5103961e-08
3.0521254e-08
9.7408233e-09
2.8216938e-09
7.4610808e-10
1.7803356e-10
3.7225275e-11
6.5235245e-12
9.6957688e-13
2.296584e-13
1.8642725e-13
1.9822619e-13
0.00091643574
0.00024726043
0.00022668653
0.00019269435
9.7119096e-05
4.8329107e-05
4.8208385e-05
4.238125e-05
3.1718435e-05
2.2000733e-05
1.6120883e-05
7.8406223e-06
3.2158613e-06
1.845035e-06
1.109277e-06
6.722813e-07
3.9319481e-07
2.056164e-07
8.49867e-08
3.0474092e-08
9.7247977e-09
2.8169164e-09
7.4483287e-10
1.7772933e-10
3.7161976e-11
6.5125484e-12
9.6801456e-13
2.2934719e-13
1.8619564e-13
1.979793e-13
0.00091644095
0.00024749068
0.00022689285
0.00019300124
9.7347133e-05
4.8401888e-05
4.8165824e-05
4.2350848e-05
3.1691334e-05
2.1977454e-05
1.6105914e-05
7.8274959e-06
3.2129268e-06
1.8440836e-06
1.1086121e-06
6.7186729e-07
3.9291216e-07
2.0538176e-07
8.4870004e-08
3.0427158e-08
9.708852e-09
2.8121637e-09
7.4356451e-10
1.7742678e-10
3.7099034e-11
6.5016345e-12
9.6646027e-13
2.2903657e-13
1.8596397e-13
1.9773231e-13
0.00091644135
0.00024771642
0.00022709621
0.00019330792
9.7576112e-05
4.847541e-05
4.8123356e-05
4.232041e-05
3.1664185e-05
2.1954131e-05
1.6090928e-05
7.8143212e-06
3.2099991e-06
1.8431399e-06
1.1079535e-06
6.7145734e-07
3.9263201e-07
2.051484e-07
8.4753855e-08
3.0380426e-08
9.6929723e-09
2.8074305e-09
7.4230133e-10
1.7712548e-10
3.7036354e-11
6.490766e-12
9.6491196e-13
2.2872654e-13
1.8573242e-13
1.9748542e-13
0.00091643678
0.00024793941
0.00022729807
0.00019361508
9.7805944e-05
4.8549692e-05
4.8080952e-05
4.2289918e-05
3.1636984e-05
2.1930754e-05
1.607591e-05
7.8011077e-06
3.2070815e-06
1.8422052e-06
1.1073022e-06
6.7105208e-07
3.9235484e-07
2.0491667e-07
8.4638453e-08
3.0333987e-08
9.6771927e-09
2.8027276e-09
7.4104644e-10
1.768262e-10
3.6974101e-11
6.4799722e-12
9.6337368e-13
2.2841775e-13
1.8550142e-13
1.9723908e-13
0.00091642711
0.0002481605
0.0002274991
0.00019392227
9.80361e-05
4.8624681e-05
4.8038686e-05
4.2259402e-05
3.1609748e-05
2.1907321e-05
1.6060855e-05
7.7878607e-06
3.2041759e-06
1.8412794e-06
1.106658e-06
6.7065135e-07
3.9208043e-07
2.046865e-07
8.4523718e-08
3.0287793e-08
9.6614921e-09
2.7980476e-09
7.397976e-10
1.7652836e-10
3.6912149e-11
6.4692302e-12
9.618421e-13
2.2810953e-13
1.8527047e-13
1.9699278e-13
0.00091641218
0.00024838074
0.00022770007
0.00019423016
9.8267228e-05
4.8700371e-05
4.7996432e-05
4.2228816e-05
3.1582438e-05
2.1883826e-05
1.6045762e-05
7.7745855e-06
3.2012843e-06
1.8403631e-06
1.1060216e-06
6.7025577e-07
3.9180936e-07
2.0445832e-07
8.4409927e-08
3.0241976e-08
9.6459211e-09
2.7934071e-09
7.3855945e-10
1.7623311e-10
3.6850742e-11
6.4585828e-12
9.6032307e-13
2.2780275e-13
1.850401e-13
1.9674705e-13
0.00091639181
0.0002486008
0.00022790112
0.00019453857
9.8499056e-05
4.8776792e-05
4.7954196e-05
4.2198173e-05
3.155507e-05
2.1860255e-05
1.6030627e-05
7.7612843e-06
3.1984071e-06
1.8394567e-06
1.105393e-06
6.698651e-07
3.9154128e-07
2.0423184e-07
8.429688e-08
3.0196439e-08
9.6304417e-09
2.7887933e-09
7.373284e-10
1.7593954e-10
3.6789684e-11
6.4479955e-12
9.5881194e-13
2.2749685e-13
1.8481003e-13
1.9650163e-13
0.00091636584
0.00024882076
0.00022810229
0.00019484694
9.8731213e-05
4.8853878e-05
4.791205e-05
4.2167479e-05
3.1527638e-05
2.1836614e-05
1.6015444e-05
7.7479594e-06
3.1955453e-06
1.8385605e-06
1.1047724e-06
6.6947961e-07
3.9127645e-07
2.0400722e-07
8.4184688e-08
3.0151236e-08
9.615076e-09
2.7842138e-09
7.3610662e-10
1.7564822e-10
3.67291e-11
6.4374903e-12
9.5731183e-13
2.2719234e-13
1.8458063e-13
1.9625692e-13
0.00091633413
0.00024904077
0.00022830384
0.00019515623
9.8964487e-05
4.8931687e-05
4.786987e-05
4.2136694e-05
3.1500125e-05
2.1812895e-05
1.6000214e-05
7.7346117e-06
3.1926995e-06
1.837674e-06
1.1041596e-06
6.6909895e-07
3.9101457e-07
2.0378429e-07
8.407323e-08
3.0106303e-08
9.5997969e-09
2.7796592e-09
7.3489137e-10
1.7535844e-10
3.6668832e-11
6.4270395e-12
9.5581875e-13
2.2688853e-13
1.8435141e-13
1.9601237e-13
0.00091629653
0.00024926125
0.00022850552
0.00019546578
9.9198227e-05
4.9010212e-05
4.7827723e-05
4.2105848e-05
3.147255e-05
2.1789095e-05
1.5984938e-05
7.7212427e-06
3.1898704e-06
1.8367975e-06
1.1035549e-06
6.6872361e-07
3.907561e-07
2.0356342e-07
8.3962748e-08
3.006176e-08
9.5846521e-09
2.7751454e-09
7.3368721e-10
1.7507135e-10
3.6609131e-11
6.4166868e-12
9.5433869e-13
2.265862e-13
1.8412277e-13
1.9576843e-13
0.00091625288
0.00024948252
0.00022870741
0.00019577507
9.9432397e-05
4.9089374e-05
4.7785627e-05
4.2074924e-05
3.1444898e-05
2.1765223e-05
1.5969614e-05
7.7078539e-06
3.1870585e-06
1.8359312e-06
1.1029582e-06
6.683533e-07
3.9050068e-07
2.0334431e-07
8.3853035e-08
3.0017505e-08
9.5696009e-09
2.7706588e-09
7.3249019e-10
1.7478594e-10
3.6549777e-11
6.4063937e-12
9.528664e-13
2.262847e-13
1.8389441e-13
1.9552478e-13
0.00091620301
0.00024970449
0.00022890986
0.00019608526
9.9667739e-05
4.9169285e-05
4.7743469e-05
4.2043916e-05
3.1417171e-05
2.1741261e-05
1.5954233e-05
7.6944456e-06
3.184264e-06
1.8350753e-06
1.1023698e-06
6.6798826e-07
3.9024855e-07
2.0312709e-07
8.3744197e-08
2.9973593e-08
9.554666e-09
2.7662073e-09
7.3130263e-10
1.7450282e-10
3.6490905e-11
6.3961839e-12
9.5140527e-13
2.2598462e-13
1.8366674e-13
1.9528186e-13
0.00091614678
0.00024992692
0.00022911262
0.00019639561
9.9903451e-05
4.9249905e-05
4.7701365e-05
4.2012817e-05
3.1389367e-05
2.1717222e-05
1.5938807e-05
7.6810187e-06
3.1814874e-06
1.8342291e-06
1.1017891e-06
6.6762804e-07
3.8999934e-07
2.0291156e-07
8.3636094e-08
2.9929951e-08
9.5398179e-09
2.7617806e-09
7.3012158e-10
1.7422123e-10
3.6432347e-11
6.3860279e-12
9.4995105e-13
2.2568516e-13
1.8343918e-13
1.9503903e-13
0.00091608406
0.0002501498
0.00022931577
0.00019670609
0.00010013982
4.9331193e-05
4.765929e-05
4.1981643e-05
3.1361484e-05
2.1693106e-05
1.5923332e-05
7.6675753e-06
3.1787296e-06
1.8333931e-06
1.1012168e-06
6.672732e-07
3.8975355e-07
2.0269813e-07
8.3528985e-08
2.9886708e-08
9.5251072e-09
2.7573958e-09
7.2895186e-10
1.7394238e-10
3.6374367e-11
6.375972e-12
9.4850996e-13
2.2538703e-13
1.8321202e-13
1.9479663e-13
0.00091601471
0.0002503731
0.00022951923
0.00019701728
0.00010037709
4.9413228e-05
4.7617184e-05
4.1950381e-05
3.1333533e-05
2.16689e-05
1.5907801e-05
7.6541136e-06
3.1759903e-06
1.8325674e-06
1.1006525e-06
6.6692332e-07
3.8951071e-07
2.0248637e-07
8.3422607e-08
2.9843736e-08
9.5104845e-09
2.7530364e-09
7.2778883e-10
1.7366511e-10
3.6316712e-11
6.3659714e-12
9.4707595e-13
2.2508954e-13
1.8298497e-13
1.9455433e-13
0.00091593859
0.00025059684
0.00022972265
0.00019732849
0.00010061471
4.9495929e-05
4.757513e-05
4.1919025e-05
3.1305488e-05
2.1644613e-05
1.5892218e-05
7.6406357e-06
3.1732702e-06
1.8317522e-06
1.1000967e-06
6.6657876e-07
3.8927116e-07
2.0227651e-07
8.3317099e-08
2.9801105e-08
9.4959779e-09
2.7487119e-09
7.2663524e-10
1.7339013e-10
3.6259537e-11
6.3560542e-12
9.4565319e-13
2.2479354e-13
1.827587e-13
1.9431286e-13
0.00091585557
0.00025082101
0.00022992643
0.00019764046
0.00010085329
4.9579368e-05
4.7533062e-05
4.188757e-05
3.1277366e-05
2.1620239e-05
1.5876585e-05
7.6271426e-06
3.1705699e-06
1.830947e-06
1.0995488e-06
6.6623906e-07
3.8903452e-07
2.0206833e-07
8.3212327e-08
2.9758744e-08
9.4815578e-09
2.7444122e-09
7.2548809e-10
1.7311665e-10
3.620267e-11
6.3461894e-12
9.4423704e-13
2.2449804e-13
1.8253241e-13
1.9407135e-13
0.00091576552
0.00025104545
0.00023013057
0.00019795317
0.00010109251
4.9663539e-05
4.7491002e-05
4.1856021e-05
3.1249167e-05
2.1595787e-05
1.5860903e-05
7.613635e-06
3.1678896e-06
1.8301523e-06
1.0990093e-06
6.6590475e-07
3.8880125e-07
2.0186219e-07
8.3108513e-08
2.9716767e-08
9.4672704e-09
2.7401529e-09
7.2435196e-10
1.7284585e-10
3.6146368e-11
6.3364224e-12
9.4283363e-13
2.2420374e-13
1.8230641e-13
1.9383014e-13
0.00091566832
0.0002512702
0.00023033501
0.00019826609
0.00010133224
4.9748376e-05
4.7448984e-05
4.1824384e-05
3.1220881e-05
2.1571253e-05
1.5845167e-05
7.6001137e-06
3.1652297e-06
1.8293681e-06
1.0984781e-06
6.6557551e-07
3.8857098e-07
2.0165774e-07
8.3005428e-08
2.967506e-08
9.4530697e-09
2.7359186e-09
7.2322234e-10
1.7257657e-10
3.6090378e-11
6.3267085e-12
9.4143707e-13
2.2391012e-13
1.820806e-13
1.9358913e-13
0.00091556385
0.00025149546
0.00023054009
0.00019857977
0.00010157289
4.9833963e-05
4.7406935e-05
4.1792652e-05
3.1192523e-05
2.1546625e-05
1.5829379e-05
7.5865793e-06
3.1625908e-06
1.8285948e-06
1.0979555e-06
6.6525169e-07
3.8834408e-07
2.014552e-07
8.2903231e-08
2.96337e-08
9.4389873e-09
2.73172e-09
7.2210239e-10
1.7230963e-10
3.6034882e-11
6.3170803e-12
9.4005209e-13
2.2361808e-13
1.8185563e-13
1.9334901e-13
0.00091545199
0.00025172126
0.0002307457
0.00019889394
0.00010181409
4.9920261e-05
4.7364927e-05
4.1760813e-05
3.1164071e-05
2.1521922e-05
1.5813543e-05
7.5730324e-06
3.1599732e-06
1.8278318e-06
1.097441e-06
6.6493281e-07
3.8812009e-07
2.0125436e-07
8.2801761e-08
2.9592606e-08
9.4249897e-09
2.7275456e-09
7.2098871e-10
1.7204416e-10
3.5979683e-11
6.3075024e-12
9.3867337e-13
2.233264e-13
1.8163054e-13
1.9310874e-13
0.00091533263
0.00025194763
0.00023095175
0.00019920866
0.00010205611
5.0007289e-05
4.7322933e-05
4.1728882e-05
3.1135548e-05
2.1497138e-05
1.5797659e-05
7.5594745e-06
3.1573775e-06
1.8270797e-06
1.0969353e-06
6.6461949e-07
3.8789961e-07
2.0105564e-07
8.2701296e-08
2.9551916e-08
9.4111316e-09
2.7234137e-09
7.1988663e-10
1.717815e-10
3.592508e-11
6.2980279e-12
9.3730818e-13
2.2303606e-13
1.8140581e-13
1.9286886e-13
0.00091520567
0.00025217446
0.00023115816
0.00019952403
0.0001022989
5.0095044e-05
4.7280926e-05
4.1696853e-05
3.1106938e-05
2.1472266e-05
1.5781725e-05
7.5459056e-06
3.1548037e-06
1.8263384e-06
1.0964379e-06
6.643113e-07
3.8768215e-07
2.0085862e-07
8.2601564e-08
2.9511497e-08
9.3973606e-09
2.7193069e-09
7.187911e-10
1.7152038e-10
3.5870791e-11
6.2886068e-12
9.3594988e-13
2.2274643e-13
1.811813e-13
1.926292e-13
0.00091507102
0.00025240148
0.00023136478
0.00019983969
0.00010254224
5.0183501e-05
4.7238963e-05
4.1664718e-05
3.1078239e-05
2.1447314e-05
1.5765741e-05
7.5323274e-06
3.1522522e-06
1.8256084e-06
1.0959494e-06
6.6400863e-07
3.8746809e-07
2.0066353e-07
8.2502723e-08
2.9471427e-08
9.3837086e-09
2.7152361e-09
7.1770531e-10
1.7126162e-10
3.5817e-11
6.2792725e-12
9.3460326e-13
2.2245832e-13
1.8095756e-13
1.9239036e-13
0.00091492858
0.00025262862
0.00023157168
0.00020015596
0.00010278651
5.0272739e-05
4.7197022e-05
4.1632493e-05
3.1049475e-05
2.1422275e-05
1.5749705e-05
7.5187385e-06
3.1497231e-06
1.824889e-06
1.0954692e-06
6.6371093e-07
3.8725694e-07
2.0047008e-07
8.2404581e-08
2.9431609e-08
9.3701358e-09
2.7111875e-09
7.1662525e-10
1.7100418e-10
3.5763478e-11
6.2699831e-12
9.3326216e-13
2.2217051e-13
1.8073367e-13
1.9215136e-13
0.00091477825
0.0002528559
0.00023177888
0.00020047272
0.0001030314
5.0362692e-05
4.7155114e-05
4.1600152e-05
3.1020608e-05
2.139716e-05
1.5733626e-05
7.5051407e-06
3.1472172e-06
1.8241806e-06
1.0949977e-06
6.6341888e-07
3.8704935e-07
2.0027878e-07
8.230745e-08
2.9392198e-08
9.3567039e-09
2.7071822e-09
7.1555699e-10
1.7074963e-10
3.5710566e-11
6.2608001e-12
9.3193513e-13
2.2188421e-13
1.8051032e-13
1.9191291e-13
0.00091461995
0.00025308331
0.00023198654
0.00020079004
0.00010327702
5.0453362e-05
4.711323e-05
4.1567721e-05
3.0991671e-05
2.137196e-05
1.5717499e-05
7.4915349e-06
3.1447345e-06
1.8234833e-06
1.0945348e-06
6.6313201e-07
3.8684483e-07
2.0008919e-07
8.2211061e-08
2.9353059e-08
9.3433591e-09
2.7032017e-09
7.144952e-10
1.7049658e-10
3.5657961e-11
6.251669e-12
9.3061476e-13
2.2159855e-13
1.8028713e-13
1.9167463e-13
0.00091445358
0.00025331094
0.00023219465
0.00020110799
0.0001035234
5.054479e-05
4.7071366e-05
4.1535187e-05
3.0962652e-05
2.1346676e-05
1.5701321e-05
7.4779206e-06
3.1422749e-06
1.8227975e-06
1.0940807e-06
6.6285068e-07
3.8664372e-07
1.9990154e-07
8.2115558e-08
2.9314267e-08
9.3301323e-09
2.6992569e-09
7.134431e-10
1.7024589e-10
3.5605854e-11
6.2426248e-12
9.2930614e-13
2.2131447e-13
1.8006477e-13
1.9143725e-13
0.00091427907
0.00025353894
0.00023240284
0.00020142618
0.0001037704
5.0636955e-05
4.7029557e-05
4.1502538e-05
3.0933535e-05
2.1321315e-05
1.56851e-05
7.4642988e-06
3.1398387e-06
1.8221224e-06
1.0936348e-06
6.6257429e-07
3.8644552e-07
1.9971555e-07
8.202076e-08
2.9275727e-08
9.3169847e-09
2.6953343e-09
7.1239667e-10
1.699965e-10
3.5554009e-11
6.2336246e-12
9.2800298e-13
2.2103077e-13
1.7984236e-13
1.9119979e-13
0.00091409635
0.00025376714
0.00023261108
0.00020174482
0.00010401819
5.072987e-05
4.6987772e-05
4.14698e-05
3.0904356e-05
2.1295868e-05
1.5668838e-05
7.4506703e-06
3.1374267e-06
1.8214585e-06
1.0931977e-06
6.6230351e-07
3.8625085e-07
1.9953171e-07
8.1926992e-08
2.9237606e-08
9.3039825e-09
2.6914565e-09
7.1136253e-10
1.6975012e-10
3.5502806e-11
6.2247362e-12
9.2671455e-13
2.2074853e-13
1.7962035e-13
1.9096276e-13
0.00091390535
0.00025399556
0.00023281944
0.00020206379
0.00010426661
5.0823492e-05
4.694601e-05
4.1436951e-05
3.0875081e-05
2.1270348e-05
1.565253e-05
7.4370343e-06
3.1350383e-06
1.820806e-06
1.092769e-06
6.6203779e-07
3.8605914e-07
1.993495e-07
8.1833914e-08
2.9199735e-08
9.2910603e-09
2.6876014e-09
7.1033426e-10
1.6950511e-10
3.5451879e-11
6.2158946e-12
9.2543195e-13
2.204667e-13
1.7939831e-13
1.9072568e-13
0.000913706
0.00025422483
0.00023302795
0.00020238278
0.00010451571
5.0917868e-05
4.6904292e-05
4.1404001e-05
3.0845732e-05
2.1244742e-05
1.5636172e-05
7.4233917e-06
3.1326739e-06
1.8201652e-06
1.0923491e-06
6.6177751e-07
3.8587077e-07
1.9916917e-07
8.1741703e-08
2.9162203e-08
9.2782536e-09
2.6837812e-09
7.0931549e-10
1.6926241e-10
3.5401442e-11
6.2071384e-12
9.2416102e-13
2.2018652e-13
1.791772e-13
1.9048959e-13
0.00091349823
0.00025445529
0.00023323671
0.00020270171
0.00010476557
5.1013011e-05
4.6862622e-05
4.1370933e-05
3.081629e-05
2.1219052e-05
1.5619776e-05
7.4097423e-06
3.1303336e-06
1.8195352e-06
1.0919374e-06
6.6152207e-07
3.8568521e-07
1.9899044e-07
8.1650166e-08
2.9124911e-08
9.2655223e-09
2.6799821e-09
7.0830207e-10
1.6902093e-10
3.5351252e-11
6.1984234e-12
9.2289515e-13
2.1990664e-13
1.7895597e-13
1.9025337e-13
0.00091328199
0.00025468649
0.00023344575
0.00020302067
0.00010501606
5.1108876e-05
4.6821007e-05
4.1337761e-05
3.0786763e-05
2.1193291e-05
1.560334e-05
7.3960884e-06
3.1280182e-06
1.8189168e-06
1.0915344e-06
6.6127215e-07
3.8550311e-07
1.988138e-07
8.1559619e-08
2.9088022e-08
9.2529309e-09
2.6762261e-09
7.0730052e-10
1.6878237e-10
3.5301681e-11
6.1898167e-12
9.216435e-13
2.196281e-13
1.7873506e-13
1.9001749e-13
0.00091305722
0.00025491808
0.00023365516
0.00020334007
0.00010526732
5.1205489e-05
4.677943e-05
4.13045e-05
3.0757175e-05
2.1167446e-05
1.5586857e-05
7.3824279e-06
3.1257272e-06
1.8183101e-06
1.0911399e-06
6.6102723e-07
3.853239e-07
1.9863872e-07
8.1469732e-08
2.9051369e-08
9.2404146e-09
2.6724914e-09
7.0630444e-10
1.6854508e-10
3.5252367e-11
6.1812533e-12
9.2039731e-13
2.1935001e-13
1.7851419e-13
1.8978163e-13
0.00091282389
0.00025515014
0.00023386483
0.00020365969
0.00010551924
5.130285e-05
4.6737907e-05
4.1271112e-05
3.0727479e-05
2.1141524e-05
1.5570334e-05
7.3687605e-06
3.1234611e-06
1.8177153e-06
1.0907542e-06
6.6078775e-07
3.8514804e-07
1.9846552e-07
8.1380711e-08
2.9015057e-08
9.2280143e-09
2.6687918e-09
7.0531795e-10
1.6831012e-10
3.5203549e-11
6.1727767e-12
9.1916305e-13
2.190737e-13
1.7829438e-13
1.895469e-13
0.00091258194
0.00025538263
0.00023407468
0.00020397954
0.00010577191
5.1400992e-05
4.6696463e-05
4.1237625e-05
3.0697721e-05
2.1115521e-05
1.555377e-05
7.3550831e-06
3.12122e-06
1.8171319e-06
1.0903767e-06
6.605531e-07
3.8497496e-07
1.9829392e-07
8.129236e-08
2.8978984e-08
9.2156888e-09
2.6651131e-09
7.0433678e-10
1.6807638e-10
3.5154976e-11
6.1643409e-12
9.1793373e-13
2.1879758e-13
1.7807434e-13
1.8931193e-13
0.00091233134
0.00025561525
0.00023428475
0.00020429996
0.00010602534
5.1499884e-05
4.6655072e-05
4.1204033e-05
3.0667876e-05
2.1089447e-05
1.5537167e-05
7.3414003e-06
3.1190044e-06
1.8165605e-06
1.0900081e-06
6.6032398e-07
3.8480533e-07
1.9812439e-07
8.1204998e-08
2.8943312e-08
9.2035034e-09
2.6614777e-09
7.0336754e-10
1.6784557e-10
3.5107027e-11
6.1560143e-12
9.1671874e-13
2.1852281e-13
1.7785462e-13
1.8907727e-13
0.00091207206
0.00025584784
0.000234495
0.0002046209
0.00010627939
5.1599504e-05
4.6613733e-05
4.1170337e-05
3.0637944e-05
2.1063296e-05
1.5520524e-05
7.327714e-06
3.1168143e-06
1.8160011e-06
1.089648e-06
6.6009988e-07
3.8463861e-07
1.9795644e-07
8.1118302e-08
2.8907881e-08
9.1913939e-09
2.6578638e-09
7.0240384e-10
1.6761605e-10
3.5059338e-11
6.1477316e-12
9.1550937e-13
2.1824861e-13
1.7763505e-13
1.8884277e-13
0.00091180407
0.00025608062
0.00023470555
0.00020494247
0.00010653421
5.16999e-05
4.6572445e-05
4.1136533e-05
3.0607946e-05
2.1037063e-05
1.550384e-05
7.3140239e-06
3.1146499e-06
1.8154543e-06
1.0892969e-06
6.5988121e-07
3.844752e-07
1.9779034e-07
8.103246e-08
2.8872786e-08
9.1793992e-09
2.6542848e-09
7.0144965e-10
1.6738884e-10
3.5012143e-11
6.1395353e-12
9.143118e-13
2.1797605e-13
1.774164e-13
1.8860925e-13
0.00091152735
0.00025631374
0.00023491644
0.00020526452
0.00010678974
5.1801054e-05
4.6531227e-05
4.1102616e-05
3.0577853e-05
2.1010761e-05
1.5487117e-05
7.3003288e-06
3.112511e-06
1.8149193e-06
1.088954e-06
6.5966736e-07
3.8431453e-07
1.9762577e-07
8.0947252e-08
2.8837915e-08
9.167474e-09
2.650725e-09
7.0050034e-10
1.6716275e-10
3.4965169e-11
6.1313759e-12
9.1311864e-13
2.1770365e-13
1.7719751e-13
1.8837547e-13
0.00091124188
0.00025654702
0.00023512763
0.00020558688
0.00010704597
5.190297e-05
4.6490087e-05
4.1068607e-05
3.05477e-05
2.098438e-05
1.5470359e-05
7.2866328e-06
3.1103985e-06
1.8143969e-06
1.08862e-06
6.5945905e-07
3.841573e-07
1.9746324e-07
8.0863016e-08
2.8803437e-08
9.1556854e-09
2.6472074e-09
6.9956264e-10
1.6693951e-10
3.4918804e-11
6.1233228e-12
9.1193958e-13
2.1743271e-13
1.7697911e-13
1.881422e-13
0.00091094766
0.00025678043
0.00023533914
0.00020590957
0.0001073029
5.2005634e-05
4.6449004e-05
4.1034482e-05
3.051745e-05
2.0957923e-05
1.5453563e-05
7.2729355e-06
3.1083121e-06
1.813887e-06
1.0882947e-06
6.5925578e-07
3.8400294e-07
1.9730226e-07
8.0779431e-08
2.8769194e-08
9.1439712e-09
2.6437109e-09
6.9863037e-10
1.6671753e-10
3.4872694e-11
6.115313e-12
9.1076598e-13
2.1716225e-13
1.7676077e-13
1.8790899e-13
0.00091064468
0.00025701413
0.00023555098
0.00020623256
0.00010756048
5.2109049e-05
4.6408004e-05
4.1000253e-05
3.0487129e-05
2.0931395e-05
1.5436728e-05
7.2592375e-06
3.1062521e-06
1.8133901e-06
1.0879784e-06
6.5905796e-07
3.8385187e-07
1.971431e-07
8.0696677e-08
2.8735277e-08
9.1323675e-09
2.6402478e-09
6.977072e-10
1.6649776e-10
3.4827054e-11
6.1073852e-12
9.0960359e-13
2.1689338e-13
1.7654332e-13
1.8767673e-13
0.00091033292
0.00025724823
0.00023576316
0.00020655601
0.00010781882
5.221324e-05
4.6367083e-05
4.0965917e-05
3.0456736e-05
2.0904792e-05
1.5419859e-05
7.2455394e-06
3.1042184e-06
1.8129055e-06
1.0876704e-06
6.5886499e-07
3.8370359e-07
1.9698549e-07
8.0614568e-08
2.8701587e-08
9.1208349e-09
2.6368045e-09
6.9678905e-10
1.6627914e-10
3.4781645e-11
6.099496e-12
9.0844597e-13
2.1662483e-13
1.7632582e-13
1.8744441e-13
0.00091001237
0.00025748269
0.00023597564
0.00020687992
0.00010807785
5.2318186e-05
4.6326245e-05
4.0931472e-05
3.0426251e-05
2.0878122e-05
1.5402962e-05
7.2318446e-06
3.1022117e-06
1.8124336e-06
1.0873715e-06
6.5867762e-07
3.8355877e-07
1.9682997e-07
8.0533453e-08
2.8668299e-08
9.109442e-09
2.6334042e-09
6.9588272e-10
1.6606343e-10
3.4736853e-11
6.0917149e-12
9.0730264e-13
2.1635774e-13
1.7610876e-13
1.8721254e-13
0.00090968304
0.00025771742
0.00023618843
0.00020720428
0.0001083376
5.2423902e-05
4.6285502e-05
4.0896938e-05
3.0395717e-05
2.0851375e-05
1.5386025e-05
7.2181507e-06
3.1002314e-06
1.8119747e-06
1.0870812e-06
6.5849526e-07
3.8341679e-07
1.9667597e-07
8.0452967e-08
2.8635237e-08
9.0981205e-09
2.6300241e-09
6.9498159e-10
1.6584892e-10
3.4692307e-11
6.083975e-12
9.0616447e-13
2.1609101e-13
1.7589167e-13
1.8698064e-13
0.00090934493
0.00025795215
0.00023640136
0.00020752919
0.00010859814
5.2530388e-05
4.6244828e-05
4.0862284e-05
3.0365083e-05
2.0824556e-05
1.5369052e-05
7.2044585e-06
3.0982777e-06
1.8115291e-06
1.0867999e-06
6.5831834e-07
3.8327807e-07
1.9652374e-07
8.0373291e-08
2.8602489e-08
9.0869064e-09
2.6266765e-09
6.9408928e-10
1.6563656e-10
3.4648216e-11
6.076315e-12
9.0503724e-13
2.1582588e-13
1.7567551e-13
1.8674972e-13
0.00090899804
0.00025818674
0.00023661412
0.0002078545
0.00010885939
5.2637643e-05
4.620424e-05
4.0827525e-05
3.0334382e-05
2.0797664e-05
1.5352048e-05
7.19077e-06
3.0963508e-06
1.8110959e-06
1.0865271e-06
6.5814629e-07
3.8314213e-07
1.9637306e-07
8.0294258e-08
2.856997e-08
9.0757634e-09
2.6233487e-09
6.9320203e-10
1.6542536e-10
3.4604358e-11
6.0686939e-12
9.0391489e-13
2.1556112e-13
1.7545934e-13
1.865188e-13
0.00090864238
0.00025842142
0.00023682679
0.00020818011
0.00010912138
5.2745668e-05
4.6163743e-05
4.0792668e-05
3.030361e-05
2.0770707e-05
1.5335014e-05
7.1770861e-06
3.0944511e-06
1.8106758e-06
1.0862633e-06
6.5797978e-07
3.8300962e-07
1.9622441e-07
8.0216178e-08
2.8537835e-08
9.0647533e-09
2.6200617e-09
6.92326e-10
1.6521691e-10
3.4561086e-11
6.0611751e-12
9.0280598e-13
2.1529764e-13
1.7524349e-13
1.8628821e-13
0.00090827796
0.00025865629
0.00023703955
0.00020850588
0.00010938407
5.2854456e-05
4.6123335e-05
4.0757708e-05
3.0272759e-05
2.0743681e-05
1.5317944e-05
7.1634065e-06
3.0925781e-06
1.8102686e-06
1.086008e-06
6.5781825e-07
3.8287993e-07
1.9607726e-07
8.0138718e-08
2.8505919e-08
9.0538122e-09
2.6167942e-09
6.9145496e-10
1.6500962e-10
3.4518047e-11
6.0536957e-12
9.0170205e-13
2.1503461e-13
1.7502772e-13
1.860577e-13
0.00090790481
0.00025889125
0.00023725247
0.00020883206
0.00010964748
5.2964027e-05
4.608302e-05
4.072264e-05
3.0241844e-05
2.0716579e-05
1.5300844e-05
7.1497323e-06
3.0907318e-06
1.8098741e-06
1.0857616e-06
6.5766215e-07
3.8275355e-07
1.9593192e-07
8.0062084e-08
2.8474326e-08
9.0429805e-09
2.6135598e-09
6.9059293e-10
1.6480452e-10
3.4475474e-11
6.0462979e-12
9.0060941e-13
2.1477332e-13
1.7481302e-13
1.8582833e-13
0.00090752294
0.00025912658
0.00023746562
0.00020915864
0.00010991167
5.3074376e-05
4.6042814e-05
4.0687463e-05
3.0210842e-05
2.0689415e-05
1.5283716e-05
7.1360641e-06
3.0889122e-06
1.8094911e-06
1.0855235e-06
6.575108e-07
3.8262989e-07
1.9578811e-07
7.9986088e-08
2.8442959e-08
9.0322197e-09
2.6103452e-09
6.8973597e-10
1.6460059e-10
3.4433135e-11
6.0389392e-12
8.9952154e-13
2.1451224e-13
1.7459813e-13
1.8559875e-13
0.00090713237
0.00025936276
0.00023767902
0.0002094851
0.00011017654
5.3185508e-05
4.6002742e-05
4.0652199e-05
3.0179794e-05
2.0662185e-05
1.5266557e-05
7.122402e-06
3.0871194e-06
1.8091213e-06
1.0852941e-06
6.5736491e-07
3.8250961e-07
1.9564629e-07
7.9911031e-08
2.8411971e-08
9.0215901e-09
2.607171e-09
6.8889014e-10
1.6439938e-10
3.4391379e-11
6.0316823e-12
8.98447e-13
2.1425239e-13
1.743835e-13
1.8536944e-13
0.00090673312
0.00025959974
0.0002378929
0.00020981158
0.00011044214
5.3297417e-05
4.5962766e-05
4.061682e-05
3.0148653e-05
2.0634883e-05
1.5249368e-05
7.1087456e-06
3.0853528e-06
1.8087645e-06
1.085073e-06
6.5722386e-07
3.823921e-07
1.9550593e-07
7.983658e-08
2.8381198e-08
9.0110279e-09
2.6040158e-09
6.8804918e-10
1.6419931e-10
3.4349851e-11
6.0244641e-12
8.9737741e-13
2.1399303e-13
1.7416902e-13
1.8514027e-13
0.00090632522
0.00025983724
0.00023810734
0.00021013837
0.00011070847
5.3410093e-05
4.5922892e-05
4.0581333e-05
3.0117445e-05
2.0607511e-05
1.5232148e-05
7.0950971e-06
3.083613e-06
1.8084212e-06
1.0848607e-06
6.570881e-07
3.8227782e-07
1.9536736e-07
7.9762949e-08
2.8350747e-08
9.0005752e-09
2.6008938e-09
6.8721728e-10
1.6400144e-10
3.4308793e-11
6.0173283e-12
8.9631919e-13
2.1373542e-13
1.7395557e-13
1.8491221e-13
0.00090590871
0.00026007538
0.00023832225
0.00021046547
0.00011097552
5.3523562e-05
4.5883134e-05
4.0545749e-05
3.0086177e-05
2.058008e-05
1.5214898e-05
7.0814557e-06
3.0818992e-06
1.8080903e-06
1.0846563e-06
6.5695688e-07
3.8216611e-07
1.9523022e-07
7.9689907e-08
2.8320502e-08
8.9901862e-09
2.5977894e-09
6.8638983e-10
1.6380459e-10
3.4267938e-11
6.010226e-12
8.95265e-13
2.1347792e-13
1.737419e-13
1.8468389e-13
0.00090548363
0.000260314
0.00023853749
0.00021079293
0.00011124335
5.3637824e-05
4.5843479e-05
4.0510058e-05
3.0054824e-05
2.0552582e-05
1.5197623e-05
7.0678234e-06
3.0802121e-06
1.8077721e-06
1.0844604e-06
6.5683093e-07
3.8205768e-07
1.9509502e-07
7.9617787e-08
2.8290632e-08
8.9799272e-09
2.5947252e-09
6.8557345e-10
1.6361046e-10
3.4227663e-11
6.0032258e-12
8.9422434e-13
2.1322183e-13