/*--------------------------------*- C++ -*----------------------------------*\
| =========                 |                                                 |
| \\      /  F ield         | OpenFOAM: The Open Source CFD Toolbox           |
|  \\    /   O peration     | Version:  v2012                                 |
|   \\  /    A nd           | Website:  www.openfoam.com                      |
|    \\/     M anipulation  |                                                 |
\*---------------------------------------------------------------------------*/
FoamFile
{
    version     2.0;
    format      ascii;
    class       volScalarField;
    location    "350";
    object      k;
}
// * * * * * * * * * * * * * * * * * * * * * * * * * * * * * * * * * * * * * //

dimensions      [0 2 -2 0 0 0 0];


internalField   nonuniform List<scalar> 
24000
(
0.094655451
0.10477228
0.10794977
0.11140112
0.12776058
0.18990935
0.46888725
1.0903234
1.6313211
1.6591248
1.205536
0.67896499
0.6054825
0.84640496
0.89829816
0.77924737
0.57906136
0.3734463
0.21106712
0.10907952
0.052995049
0.024504791
0.010778044
0.0044601465
0.0017013647
0.00058314
0.00018741324
0.00011171903
0.00031395783
0.0022670973
0.094660596
0.10477232
0.10794178
0.11136551
0.1276444
0.18913664
0.4644294
1.081897
1.6230405
1.6545011
1.2046836
0.6779899
0.60193604
0.84343159
0.89708849
0.77968286
0.58036579
0.37480279
0.21207958
0.10971205
0.053347764
0.024684508
0.010862459
0.0044967784
0.0017161322
0.00058914594
0.00019137081
0.00011916202
0.00034163548
0.0024666573
0.094669233
0.10477267
0.10793486
0.11134131
0.12755164
0.18867003
0.46215715
1.0780224
1.6193596
1.6521919
1.2039639
0.67764982
0.60065226
0.84203667
0.89649982
0.78008982
0.58150964
0.37633783
0.21332604
0.11050147
0.053778554
0.024897958
0.01096053
0.0045384908
0.0017321526
0.00059420532
0.0001917693
0.00011621942
0.00032907107
0.0023757839
0.094677609
0.10477366
0.10793123
0.11132387
0.12748086
0.18828738
0.46015663
1.0741646
1.6149635
1.6485664
1.2020055
0.67689241
0.59996166
0.84075739
0.89531555
0.7791543
0.58068285
0.37554644
0.21271385
0.11010905
0.053559839
0.02478771
0.010909316
0.0045165723
0.001723685
0.00059145629
0.00019135371
0.00011719092
0.00033346038
0.0024076224
0.094685763
0.10477512
0.10792922
0.11130871
0.12741458
0.18792604
0.45823886
1.0703396
1.6103526
1.6446294
1.1995731
0.67599185
0.59945668
0.83961478
0.89418675
0.77835505
0.58025252
0.37539588
0.21269176
0.11012271
0.053575009
0.024797372
0.01091434
0.0045188588
0.0017245917
0.00059173077
0.00019132458
0.00011686583
0.00033212657
0.0023979464
0.094693731
0.10477722
0.10792862
0.11129527
0.12735155
0.18757963
0.45637001
1.0665205
1.6057369
1.6406377
1.1969254
0.6748602
0.5989746
0.83863526
0.89310701
0.77740806
0.57950757
0.37485888
0.21236201
0.10994236
0.053484275
0.024754575
0.01089532
0.0045109535
0.0017215797
0.00059071599
0.00019103977
0.00011680063
0.00033208561
0.0023976689
0.094701589
0.10477983
0.10792893
0.11128278
0.12728989
0.18724093
0.45452586
1.0626925
1.6011765
1.6366121
1.194155
0.6736223
0.59851959
0.8377343
0.89205502
0.77644278
0.57873827
0.3743172
0.21204255
0.10977498
0.053403123
0.024717378
0.01087913
0.0045043216
0.001719073
0.00058986474
0.00019077068
0.00011664728
0.000331663
0.0023946166
0.094709395
0.10478286
0.10792983
0.11127086
0.12722913
0.18690733
0.45269906
1.0588691
1.5966487
1.6325687
1.1913173
0.67232078
0.59807837
0.83688193
0.89102164
0.77546045
0.57793102
0.37373181
0.21168921
0.10958652
0.053310541
0.024674543
0.010860365
0.0044966011
0.0017161478
0.00058887272
0.0001904649
0.00011649426
0.00033127156
0.0023917928
0.09471719
0.10478619
0.10793113
0.11125932
0.12716906
0.18657737
0.4508853
1.0550516
1.5921379
1.6285137
1.1884412
0.67098507
0.59764809
0.8360593
0.8900021
0.77447386
0.57711044
0.37313224
0.21132593
0.10939245
0.053215161
0.024630418
0.010841042
0.0044886535
0.0017131371
0.00058785114
0.000190148
0.00011633013
0.00033084249
0.0023886949
0.094725002
0.10478976
0.10793271
0.11124807
0.12710954
0.1862503
0.44908225
1.0512396
1.5876365
1.6244516
1.1855426
0.66962926
0.59722597
0.83525643
0.88899317
0.77348674
0.57628284
0.37252393
0.210956
0.10919441
0.05311772
0.024585312
0.010821283
0.0044805259
0.0017100582
0.00058680649
0.00018982408
0.00011616264
0.00033040498
0.0023855354
0.094732846
0.10479351
0.1079345
0.11123705
0.12705051
0.18592562
0.44728842
1.0474328
1.58314
1.6203842
1.1826292
0.66826191
0.59681054
0.83446751
0.88799309
0.77250186
0.57545335
0.37191226
0.21058332
0.10899469
0.053019394
0.024539785
0.010801337
0.004472321
0.00170695
0.00058575185
0.00018949681
0.00011599273
0.00032995995
0.0023823208
0.094740733
0.10479741
0.10793647
0.11122625
0.12699192
0.18560304
0.445503
1.0436309
1.5786464
1.6163124
1.1797064
0.66688777
0.59640074
0.83368915
0.88700072
0.77152065
0.57462468
0.37129997
0.21020989
0.10879447
0.052920807
0.024494136
0.01078134
0.0044640962
0.0017038347
0.00058469484
0.0001891687
0.00011582199
0.00032951203
0.0023790848
0.094748669
0.10480145
0.10793858
0.11121563
0.12693373
0.18528244
0.44372551
1.0398338
1.5741542
1.6122371
1.1767768
0.66550939
0.59599598
0.83291938
0.88601545
0.77054396
0.57379836
0.37068861
0.20983671
0.10859427
0.052822204
0.024448473
0.010761334
0.0044558678
0.001700718
0.00058363736
0.00018884032
0.0001156507
0.00032906197
0.0023758327
0.094756656
0.10480561
0.10794083
0.1112052
0.12687594
0.18496365
0.44195554
1.0360413
1.5696626
1.6081585
1.1738421
0.66412833
0.59559586
0.8321569
0.88503679
0.76957232
0.57297555
0.37007948
0.20946484
0.10839481
0.052723977
0.024402994
0.010741413
0.0044476757
0.0016976155
0.00058258472
0.00018851326
0.00011547957
0.0003286114
0.0023725764
0.094764695
0.10480987
0.10794319
0.11119494
0.12681853
0.18464659
0.44019285
1.0322535
1.5651715
1.6040771
1.1709032
0.66274549
0.59520014
0.83140108
0.8840645
0.76860592
0.57215653
0.3694728
0.20909434
0.10819604
0.052626083
0.024357665
0.010721559
0.0044395106
0.0016945232
0.00058153555
0.00018818717
0.0001153086
0.00032816066
0.0023693184
0.094772786
0.10481424
0.10794567
0.11118485
0.12676147
0.18433124
0.43843734
1.0284702
1.5606803
1.5999928
1.1679607
0.66136144
0.59480866
0.83065145
0.88309843
0.76764493
0.57134174
0.36886905
0.20872561
0.10799824
0.052528681
0.024312573
0.01070181
0.0044313905
0.0016914483
0.00058049233
0.00018786281
0.0001151381
0.00032771047
0.0023660641
0.094780929
0.1048187
0.10794826
0.11117491
0.12670476
0.18401753
0.43668884
1.0246914
1.5561892
1.595906
1.165015
0.65997648
0.59442132
0.8299078
0.88213852
0.76668945
0.57053125
0.36826824
0.20835857
0.1078013
0.052431687
0.024267664
0.010682141
0.0044233027
0.0016883856
0.0005794532
0.00018753956
0.00011496777
0.00032726002
0.0023628074
0.094789124
0.10482326
0.10795096
0.11116513
0.12664839
0.18370539
0.43494728
1.0209172
1.5516979
1.5918166
1.1620662
0.6585909
0.59403805
0.82916981
0.8811846
0.7657396
0.56972546
0.36767092
0.20799375
0.1076056
0.052335335
0.024223065
0.010662612
0.0044152737
0.0016853456
0.00057842177
0.00018721851
0.00011479802
0.00032681014
0.0023595546
0.094797368
0.1048279
0.10795375
0.1111555
0.12659234
0.18339488
0.43321261
1.0171475
1.5472067
1.5877248
1.1591146
0.65720483
0.59365879
0.82843749
0.88023669
0.7647953
0.56892414
0.36707675
0.20763079
0.10741089
0.052239459
0.024178683
0.010643176
0.0044072832
0.0016823201
0.0005773952
0.00018689883
0.00011462858
0.00032636047
0.0023563029
0.094805659
0.10483263
0.10795663
0.111146
0.12653662
0.1830859
0.43148469
1.0133823
1.5427154
1.5836305
1.1561603
0.65581839
0.59328351
0.82771074
0.87929474
0.76385659
0.56812743
0.36648592
0.2072699
0.10721732
0.052144157
0.024134574
0.010623863
0.004399344
0.0016793143
0.00057637535
0.00018658109
0.00011445973
0.00032591161
0.002353057
0.094813996
0.10483745
0.10795961
0.11113665
0.12648121
0.18277843
0.42976353
1.0096216
1.5382242
1.5795339
1.1532034
0.65443167
0.59291221
0.82698957
0.8783588
0.76292349
0.56733528
0.3658983
0.20691088
0.1070247
0.052049313
0.024090669
0.010604638
0.0043914403
0.0016763217
0.00057535989
0.00018626456
0.00011429112
0.00032546277
0.002349811
0.094822377
0.10484235
0.10796268
0.11112743
0.12642611
0.1824725
0.42804906
1.0058654
1.533733
1.5754349
1.1502438
0.65304473
0.59254487
0.82627385
0.87742876
0.76199608
0.56654796
0.36531432
0.20655418
0.1068334
0.051955143
0.02404709
0.01058556
0.0043835984
0.001673353
0.00057435255
0.00018595036
0.00011412312
0.00032501458
0.0023465693
0.094830799
0.10484733
0.10796584
0.11111834
0.1263713
0.18216802
0.42634119
1.0021136
1.5292418
1.5713336
1.1472819
0.65165765
0.59218148
0.82556361
0.87650465
0.76107427
0.56576523
0.36473361
0.20619944
0.10664312
0.051861467
0.024003735
0.010566578
0.0043757958
0.0016703989
0.0005733501
0.00018563752
0.00011395544
0.0003245666
0.002343329
0.09483926
0.10485239
0.10796908
0.11110937
0.12631678
0.181865
0.42463991
0.99836623
1.5247507
1.5672301
1.1443175
0.65027048
0.59182204
0.82485885
0.87558645
0.76015808
0.56498719
0.36415634
0.20584682
0.10645401
0.051768383
0.023960662
0.010547722
0.0043680459
0.0016674652
0.00057235454
0.00018532668
0.00011378836
0.00032411951
0.0023400951
0.094847757
0.10485753
0.10797241
0.11110053
0.12626254
0.18156347
0.42294521
0.99462332
1.5202598
1.5631244
1.1413508
0.64888323
0.59146658
0.82415964
0.87467424
0.7592475
0.56421374
0.36358231
0.20549611
0.10626588
0.051675765
0.023917796
0.010528955
0.0043603319
0.0016645448
0.00057136341
0.00018501705
0.00011362151
0.00032367235
0.0023368604
0.09485629
0.10486274
0.10797581
0.11109179
0.12620858
0.18126331
0.42125701
0.99088481
1.5157689
1.5590165
1.1383818
0.64749606
0.59111509
0.82346582
0.87376789
0.75834262
0.56344518
0.363012
0.20514778
0.10607909
0.051583839
0.023875265
0.010510339
0.0043526815
0.0016616489
0.00057038063
0.00018470978
0.0001134552
0.00032322555
0.0023336281
0.094864855
0.10486803
0.10797929
0.11108317
0.12615488
0.18096457
0.4195753
0.98715071
1.5112783
1.5549065
1.1354106
0.64610886
0.59076757
0.82277752
0.87286748
0.75744329
0.56268113
0.36244488
0.20480133
0.10589329
0.051492385
0.023832946
0.010491815
0.0043450681
0.0016587668
0.00056940241
0.00018440377
0.00011328913
0.00032277871
0.0023303952
0.094873451
0.1048734
0.10798284
0.11107466
0.12610145
0.18066722
0.41790004
0.98342097
1.5067878
1.5507945
1.1324371
0.64472174
0.59042404
0.8220947
0.87197296
0.75654956
0.56192174
0.36188118
0.20445701
0.10570866
0.051401525
0.02379091
0.010473417
0.0043375078
0.0016559052
0.00056843115
0.00018409978
0.00011312371
0.00032233293
0.0023271701
0.094882076
0.10487883
0.10798646
0.11106624
0.12604826
0.18037121
0.41623122
0.97969563
1.5022974
1.5466804
1.1294616
0.64333476
0.59008454
0.82141742
0.8710844
0.75566142
0.56116693
0.36132072
0.2041146
0.10552502
0.051311131
0.023749083
0.010455108
0.0043299831
0.0016530567
0.00056746423
0.00018379695
0.00011295845
0.00032188689
0.0023239429
0.094890728
0.10488434
0.10799015
0.11105793
0.12599533
0.18007659
0.41456881
0.97597465
1.4978073
1.5425643
1.126484
0.64194795
0.58974907
0.82074563
0.87020174
0.75477893
0.56041692
0.36076389
0.20377449
0.10534267
0.05122141
0.02370758
0.010436946
0.0043225205
0.0016502322
0.00056650548
0.00018349643
0.00011279369
0.00032144103
0.0023207168
0.094899405
0.10488992
0.1079939
0.11104971
0.12594263
0.17978326
0.41291275
0.97225801
1.4933173
1.5384463
1.1235044
0.64056139
0.58941764
0.82007936
0.86932501
0.753902
0.55967144
0.36021026
0.20343628
0.10516131
0.051132157
0.023666288
0.010418874
0.004315094
0.0016474211
0.00056555114
0.00018319713
0.0001126292
0.0003209953
0.0023174915
0.094908106
0.10489556
0.10799771
0.11104159
0.12589017
0.17949125
0.41126302
0.96854572
1.4888277
1.5343263
1.1205228
0.6391751
0.5890903
0.8194186
0.86845419
0.75303069
0.55893066
0.35966009
0.20310022
0.10498114
0.051043509
0.023625284
0.010400931
0.0043077219
0.001644631
0.00056460396
0.00018289992
0.00011246539
0.00032055075
0.0023142746
0.094916828
0.10490127
0.10800157
0.11103355
0.12583794
0.17920054
0.40961961
0.96483779
1.4843382
1.5302044
1.1175392
0.63778913
0.58876708
0.81876344
0.86758938
0.75216499
0.55819446
0.35911315
0.20276606
0.10480194
0.050955322
0.023584484
0.010383075
0.0043003843
0.0016418536
0.00056366095
0.00018260381
0.0001123017
0.00032010576
0.0023110544
0.094925571
0.10490705
0.1080055
0.1110256
0.12578593
0.17891108
0.4079825
0.96113421
1.4798489
1.5260808
1.1145539
0.63640357
0.58844798
0.81811374
0.86673047
0.751305
0.55746316
0.35856996
0.2024343
0.10462411
0.050867838
0.023544025
0.010365373
0.0042931123
0.0016391015
0.00056272659
0.00018231015
0.00011213856
0.00031966109
0.0023078363
0.094934332
0.10491289
0.10800947
0.11101773
0.12573414
0.17862291
0.40635168
0.95743499
1.4753601
1.5219554
1.1115668
0.6350184
0.58813303
0.81746964
0.86587752
0.75045057
0.55673637
0.35802996
0.20210442
0.10444726
0.050780825
0.023503778
0.010347762
0.0042858766
0.001636363
0.00056179666
0.00018201771
0.0001119757
0.0003192166
0.0023046193
0.09494311
0.10491879
0.1080135
0.11100994
0.12568255
0.17833598
0.40472711
0.95374013
1.4708714
1.5178281
1.1085779
0.63363376
0.58782226
0.81683107
0.86503049
0.74960175
0.55601428
0.35749341
0.2017767
0.10427159
0.050694417
0.023463821
0.010330281
0.0042786958
0.0016336456
0.00056087398
0.00018172739
0.0001118135
0.00031877316
0.00230141
0.094951903
0.10492475
0.10801757
0.11100223
0.12563118
0.17805029
0.40310882
0.95004963
1.4663832
1.5136993
1.1055873
0.63224958
0.58751572
0.81619816
0.8641895
0.74875851
0.55529672
0.35696002
0.20145082
0.10409686
0.050608444
0.023424053
0.01031288
0.0042715464
0.0016309396
0.00055995501
0.00018143803
0.00011165139
0.00031832927
0.0022981972
0.094960711
0.10493077
0.10802169
0.11099458
0.12558001
0.17776583
0.4014968
0.94636354
1.4618954
1.5095688
1.102595
0.63086595
0.58721343
0.81557077
0.86335443
0.74792098
0.55458402
0.35643035
0.20112732
0.10392349
0.050523178
0.02338463
0.010295636
0.0042644638
0.0016282597
0.00055904493
0.00018115122
0.00011148991
0.00031788599
0.0022949887
0.09496953
0.10493684
0.10802586
0.11098701
0.12552903
0.17748257
0.39989101
0.94268183
1.457408
1.5054367
1.0996012
0.62948293
0.5869154
0.81494897
0.86252533
0.74708902
0.55387587
0.35590389
0.20080572
0.1037511
0.05043838
0.023345417
0.010278481
0.0042574168
0.0016255928
0.00055813917
0.00018086559
0.00011132868
0.00031744277
0.0022917805
0.09497836
0.10494297
0.10803006
0.11097951
0.12547825
0.17720053
0.39829145
0.93900454
1.4529211
1.5013032
1.0966058
0.62810052
0.58662167
0.81433279
0.86170219
0.74626264
0.55317238
0.35538084
0.20048624
0.10357989
0.050354181
0.02330649
0.010261455
0.0042504244
0.0016229471
0.00055724064
0.00018058209
0.00011116815
0.00031700074
0.0022885809
0.094987199
0.10494916
0.10803431
0.11097207
0.12542766
0.17691969
0.39669814
0.93533173
1.4484347
1.4971681
1.0936089
0.62671876
0.58633227
0.81372229
0.86088507
0.74544185
0.5524734
0.35486096
0.2001686
0.1034096
0.050270414
0.023267752
0.010244508
0.0042434628
0.0016203126
0.00055634573
0.00018029953
0.00011100773
0.0003165584
0.0022853788
0.094996045
0.1049554
0.1080386
0.11096469
0.12537725
0.17664003
0.39511106
0.93166338
1.443949
1.4930317
1.0906106
0.62533772
0.58604723
0.81311736
0.86007388
0.74462671
0.55177927
0.35434478
0.19985336
0.1032407
0.050187371
0.023229369
0.010227724
0.004236571
0.0016177053
0.00055546016
0.00018001964
0.00011084792
0.00031611644
0.0022821793
0.095004896
0.1049617
0.10804293
0.11095737
0.12532703
0.17636156
0.3935302
0.92799952
1.4394639
1.4888939
1.0876109
0.62395736
0.58576654
0.81251811
0.85926865
0.74381703
0.55108951
0.35383167
0.19953991
0.10307272
0.050104763
0.023191179
0.010211021
0.0042297115
0.0016151098
0.00055457847
0.00017974078
0.00011068825
0.00031567423
0.0022789779
0.095013752
0.10496805
0.1080473
0.11095011
0.125277
0.17608426
0.39195554
0.92434018
1.4349794
1.4847549
1.0846098
0.62257772
0.58549024
0.81192449
0.85846933
0.74301285
0.55040431
0.35332188
0.19922852
0.10290588
0.050022738
0.023153269
0.010194445
0.0042229055
0.0016125351
0.00055370389
0.00017946402
0.00011052931
0.00031523336
0.0022757861
0.09502261
0.10497446
0.1080517
0.11094291
0.12522714
0.17580813
0.39038713
0.92068541
1.4304958
1.4806146
1.0816074
0.62119878
0.58521837
0.81133662
0.85767602
0.74221413
0.54972348
0.35281513
0.1989189
0.10273992
0.049941124
0.023115538
0.010177943
0.0042161285
0.0016099709
0.0005528327
0.00017918814
0.00011037045
0.00031479209
0.0022725913
0.095031469
0.10498091
0.10805614
0.11093575
0.12517745
0.17553316
0.38882496
0.91703523
1.4260129
1.4764732
1.0786038
0.61982062
0.58495093
0.81075433
0.8568886
0.74142096
0.54904736
0.35231197
0.19861159
0.1025753
0.049860207
0.023078148
0.010161598
0.0042094188
0.001607433
0.00055197055
0.00017891483
0.00011021215
0.00031435105
0.0022693979
0.095040328
0.10498742
0.10806062
0.11092865
0.12512793
0.17525935
0.38726899
0.91338964
1.4215309
1.4723308
1.0755991
0.61844305
0.58468794
0.81017776
0.8561071
0.74063316
0.5483755
0.35181177
0.19830599
0.10241155
0.0497797
0.02304094
0.010145328
0.0042027391
0.0016049061
0.00055111197
0.00017864248
0.00011005401
0.00031390989
0.0022662035
0.095049187
0.10499398
0.10806513
0.11092159
0.12507858
0.17498669
0.38571925
0.9097487
1.4170498
1.4681874
1.0725932
0.6170658
0.58442941
0.80960681
0.85533149
0.7398508
0.54770814
0.35131484
0.19800244
0.10224894
0.049699776
0.023004012
0.010129187
0.0041961134
0.0016024001
0.00055026059
0.00017837228
0.00010989665
0.00031347029
0.0022630204
0.095058043
0.10500058
0.10806966
0.11091459
0.1250294
0.17471515
0.38417574
0.90611242
1.4125696
1.4640431
1.0695864
0.61568818
0.58417535
0.80904159
0.85456185
0.73907385
0.54704513
0.35082095
0.19770064
0.10208721
0.04962026
0.022967261
0.010113118
0.0041895163
0.0015999045
0.00054941256
0.00017810293
0.00010973933
0.00031303011
0.0022598329
0.095066897
0.10500724
0.10807423
0.11090762
0.12498038
0.17444476
0.38263844
0.90248087
1.4080904
1.4598979
1.0665785
0.61431102
0.5839258
0.80848196
0.85379808
0.7383024
0.54638677
0.35033061
0.19740114
0.1019268
0.04954144
0.022930853
0.010097208
0.0041829868
0.0015974353
0.00054857362
0.00017783616
0.00010958256
0.00031259012
0.0022566467
0.095075748
0.10501394
0.10807882
0.11090069
0.12493152
0.17417548
0.38110732
0.89885408
1.4036121
1.455752
1.0635699
0.61293454
0.58368074
0.807928
0.85304019
0.73753628
0.54573265
0.34984322
0.19710336
0.10176727
0.049463032
0.022894627
0.010081373
0.0041764877
0.0015949772
0.0005477383
0.00017757038
0.00010942601
0.00031215024
0.0022534611
0.095084595
0.10502069
0.10808344
0.11089381
0.12488282
0.17390733
0.3795824
0.89523206
1.399135
1.4516054
1.0605605
0.61155853
0.5834402
0.80737968
0.85228816
0.73677554
0.54508295
0.34935906
0.19680759
0.10160887
0.0493852
0.022858679
0.010065665
0.0041700421
0.00159254
0.00054691014
0.00017730673
0.00010927018
0.00031171167
0.002250285
0.095093437
0.10502749
0.10808809
0.11088697
0.12483427
0.17364029
0.37806369
0.89161488
1.3946589
1.4474583
1.0575503
0.61018293
0.58320424
0.80683713
0.85154209
0.73602012
0.54443748
0.3488778
0.19651348
0.10145129
0.049307749
0.022822894
0.010050024
0.0041636226
0.0015901121
0.00054608499
0.00017704383
0.00010911436
0.00031127253
0.0022471045
0.095102275
0.10503433
0.10809276
0.11088016
0.12478588
0.17337435
0.37655118
0.88800256
1.390184
1.4433106
1.0545395
0.6088083
0.58297286
0.80630019
0.85080186
0.73527016
0.54379659
0.34840003
0.19622163
0.101295
0.049230975
0.022787443
0.010034537
0.0041572689
0.00158771
0.00054526869
0.00017678347
0.00010895917
0.00031083389
0.0022439275
0.09511111
0.10504122
0.10809745
0.11087339
0.12473765
0.17310953
0.37504486
0.88439517
1.3857105
1.4391625
1.0515282
0.60743453
0.58274607
0.80576895
0.85006752
0.73452548
0.54315989
0.34792515
0.19593144
0.10113957
0.049154603
0.022752169
0.010019124
0.0041509448
0.0015853187
0.00054445594
0.00017652407
0.00010880414
0.00031039519
0.0022407499
0.09511994
0.10504817
0.10810216
0.11086666
0.12468956
0.17284579
0.37354475
0.88079272
1.381238
1.4350141
1.0485164
0.60606165
0.58252389
0.80524337
0.84933904
0.73378614
0.54252754
0.34745342
0.19564322
0.10098522
0.049078785
0.022717162
0.010003832
0.0041446717
0.0015829472
0.00054364999
0.00017626668
0.00010864981
0.00030995777
0.0022375817
0.095128766
0.10505516
0.1081069
0.11085997
0.12464163
0.17258316
0.37205084
0.87719527
1.3767671
1.4308655
1.0455042
0.60468979
0.58230639
0.80472355
0.84861652
0.73305211
0.5418994
0.3469846
0.19535666
0.10083171
0.049003353
0.022682321
0.0099886089
0.0041384254
0.0015805854
0.00054284716
0.00017601011
0.00010849558
0.00030952009
0.0022344114
0.095137587
0.10506219
0.10811167
0.11085332
0.12459386
0.17232162
0.37056315
0.87360286
1.3722974
1.4267167
1.0424918
0.60331921
0.58209354
0.8042093
0.84789982
0.73232355
0.54127588
0.3465193
0.19507239
0.10067951
0.04892861
0.022647819
0.0099735414
0.004132246
0.0015782497
0.00054205332
0.00017575611
0.00010834196
0.00030908284
0.002231244
0.095146405
0.10506928
0.10811645
0.1108467
0.12454623
0.17206116
0.36908166
0.87001553
1.3678292
1.4225678
1.0394791
0.60194979
0.58188536
0.80370077
0.84718901
0.73160021
0.54065645
0.34605681
0.19478973
0.10052814
0.048854253
0.022613487
0.0099585454
0.0041260949
0.0015759244
0.00054126285
0.00017550301
0.00010818845
0.00030864536
0.0022280748
0.095155219
0.10507642
0.10812127
0.11084012
0.12449876
0.1718018
0.36760637
0.86643334
1.3633626
1.4184191
1.0364664
0.60058161
0.58168187
0.8031979
0.84648404
0.73088215
0.5400413
0.3455974
0.19450898
0.10037782
0.048780433
0.022579413
0.009943666
0.0041199931
0.0015736182
0.00054047898
0.00017525186
0.00010803565
0.00030820923
0.0022249154
0.095164029
0.10508361
0.10812611
0.11083359
0.12445144
0.17154351
0.36613729
0.86285633
1.3588975
1.4142704
1.0334535
0.59921485
0.58148311
0.80270073
0.84578498
0.73016936
0.53943032
0.34514087
0.19422988
0.10022832
0.048706996
0.022545506
0.0099288559
0.0041139184
0.0015713219
0.00053969828
0.00017500156
0.00010788297
0.00030777292
0.0022217545
0.095172837
0.10509085
0.10813097
0.11082709
0.12440427
0.1712863
0.36467439
0.85928455
1.3544341
1.4101219
1.0304408
0.59784959
0.58128906
0.80220913
0.84509173
0.72946196
0.53882384
0.34468775
0.19395297
0.10008009
0.048634218
0.022511921
0.0099141936
0.004107907
0.0015690503
0.00053892607
0.00017475367
0.00010773082
0.00030733685
0.0022185953
0.095181643
0.10509815
0.10813587
0.11082063
0.12435725
0.17103017
0.36321768
0.85571805
1.3499723
1.4059738
1.0274282
0.59648581
0.58109972
0.80172321
0.84440431
0.72875973
0.53822141
0.34423738
0.19367764
0.099932647
0.048561811
0.022478499
0.0098995997
0.0041019226
0.0015667885
0.00053815707
0.00017450665
0.00010757883
0.00030690074
0.0022154357
0.095190448
0.10510551
0.1081408
0.11081421
0.12431039
0.17077511
0.36176718
0.85215686
1.3455124
1.4018262
1.0244158
0.59512364
0.58091511
0.80124291
0.84372266
0.72806272
0.53762324
0.3437901
0.19340423
0.099786274
0.048489949
0.02244534
0.0098851246
0.0040959885
0.0015645462
0.00053739479
0.00017426164
0.00010742761
0.00030646622
0.0022122876
0.095199253
0.10511292
0.10814576
0.11080783
0.12426369
0.17052114
0.36032289
0.84860102
1.3410542
1.3976789
1.0214037
0.59376316
0.58073525
0.80076826
0.84304683
0.72737091
0.53702918
0.34334565
0.19313245
0.099640717
0.048418466
0.022412346
0.0098707183
0.0040900814
0.0015623138
0.00053663569
0.00017401745
0.00010727643
0.0003060312
0.0022091357
0.095208059
0.10512039
0.10815075
0.1108015
0.12421714
0.17026823
0.35888482
0.84505059
1.3365979
1.3935324
1.018392
0.59240439
0.58056007
0.80029905
0.84237668
0.72668437
0.53643952
0.34290455
0.19286282
0.099496398
0.048347632
0.02237967
0.0098564583
0.0040842371
0.0015601059
0.00053588501
0.00017377565
0.00010712575
0.00030559631
0.0022059845
0.095216867
0.10512792
0.10815579
0.11079521
0.12417076
0.1700164
0.35745296
0.84150562
1.3321436
1.3893865
1.0153808
0.59104734
0.58038955
0.79983533
0.8417122
0.72600286
0.53585381
0.34246612
0.19259473
0.099352854
0.048277159
0.022347153
0.0098422651
0.004078419
0.0015579076
0.00053513748
0.00017353471
0.00010697526
0.00030516151
0.0022028339
0.095225678
0.10513551
0.10816087
0.11078897
0.12412453
0.16976563
0.3560273
0.83796614
1.3276913
1.3852414
1.0123702
0.58969215
0.58022368
0.79937699
0.84105331
0.72532643
0.53527225
0.34203072
0.19232852
0.099210365
0.048207229
0.022314899
0.0098281907
0.0040726516
0.001555729
0.00053439673
0.0001732958
0.00010682554
0.00030472826
0.0021996946
0.095234495
0.10514317
0.10816598
0.11078278
0.12407847
0.16951594
0.35460784
0.83443218
1.3232411
1.3810972
1.0093602
0.5883388
0.58006247
0.79892412
0.84040006
0.72465497
0.53469459
0.34159799
0.19206384
0.099068628
0.048137643
0.022282792
0.0098141773
0.0040669077
0.0015535589
0.00053365869
0.00017305757
0.00010667582
0.00030429445
0.0021965509
0.095243319
0.10515089
0.10817114
0.11077664
0.12403257
0.16926731
0.35319456
0.83090383
1.3187928
1.3769541
1.006351
0.58698742
0.57990587
0.79847651
0.83975228
0.72398859
0.53412118
0.34116849
0.19180125
0.098928101
0.048068694
0.022250999
0.0098003087
0.0040612261
0.0015514132
0.00053292906
0.00017282177
0.00010652669
0.00030386112
0.0021934106
0.095252152
0.10515869
0.10817635
0.11077055
0.12398684
0.16901974
0.35178746
0.82738109
1.3143468
1.3728119
1.0033427
0.58563804
0.57975385
0.7980342
0.83910995
0.72332703
0.53355155
0.34074157
0.19154014
0.098788324
0.048000096
0.022219361
0.0097865048
0.00405557
0.0015492768
0.00053220248
0.00017258678
0.0001063777
0.00030342773
0.0021902697
0.095260996
0.10516655
0.1081816
0.11076452
0.12394127
0.16877323
0.35038653
0.82386401
1.309903
1.3686709
1.0003353
0.58429069
0.57960638
0.79759704
0.83847297
0.7226703
0.53298584
0.3403175
0.1912808
0.098649535
0.047932004
0.022187967
0.0097728123
0.0040499614
0.0015471589
0.00053148228
0.00017235369
0.00010622939
0.00030299564
0.0021871382
0.095269853
0.10517449
0.1081869
0.11075855
0.12389588
0.16852778
0.34899177
0.82035262
1.3054613
1.3645313
0.99732898
0.5829454
0.57946347
0.79716505
0.83784136
0.72201832
0.53242387
0.33989598
0.1910229
0.098511451
0.047864232
0.022156708
0.0097591745
0.0040443736
0.0015450484
0.0005307644
0.00017212119
0.00010608112
0.00030256319
0.002184004
0.095278727
0.10518251
0.10819226
0.11075264
0.12385066
0.16828338
0.34760318
0.81684696
1.301022
1.3603928
0.99432376
0.58160232
0.57932505
0.79673798
0.83721493
0.72137121
0.53186604
0.33947768
0.19076712
0.098374603
0.047797115
0.022125775
0.0097456871
0.0040388507
0.0015429633
0.00053005535
0.00017189123
0.00010593347
0.00030213127
0.0021808736
0.09528762
0.1051906
0.10819766
0.11074679
0.12380562
0.16804004
0.34622077
0.81334708
1.2965849
1.3562558
0.99131978
0.58026146
0.57919111
0.79631593
0.83659367
0.72072866
0.53131177
0.3390618
0.19051272
0.098238449
0.047730319
0.022094981
0.0097322579
0.0040333506
0.0015408866
0.00052934896
0.00017166196
0.00010578589
0.00030169909
0.002177741
0.095296533
0.10519877
0.10820312
0.11074101
0.12376075
0.16779776
0.3448445
0.80985301
1.2921502
1.3521204
0.98831707
0.57892286
0.57906164
0.79589882
0.83597748
0.72009065
0.53076119
0.33864859
0.19025999
0.098103226
0.047664003
0.02206442
0.0097189349
0.0040278958
0.0015388276
0.00052864873
0.00017143456
0.00010563902
0.00030126838
0.0021746192
0.09530547
0.10520703
0.10820864
0.1107353
0.12371607
0.16755653
0.34347439
0.80636481
1.2877179
1.3479865
0.98531576
0.57758663
0.57893666
0.79548665
0.83536637
0.71945713
0.53021412
0.33823779
0.19000861
0.097968662
0.047597984
0.022033983
0.0097056619
0.0040224599
0.0015367752
0.00052795056
0.00017120766
0.00010549216
0.00030083727
0.0021714943
0.095314434
0.10521538
0.10821421
0.11072965
0.12367156
0.16731635
0.34211043
0.80288248
1.2832879
1.3438543
0.98231597
0.57625287
0.57881612
0.7950792
0.83476017
0.71882818
0.52967094
0.33782998
0.1897592
0.097835255
0.04753258
0.022003853
0.0096925312
0.0040170856
0.001534747
0.00052726079
0.00017098319
0.00010534588
0.00030040659
0.0021683724
0.095323428
0.10522381
0.10821985
0.11072409
0.12362725
0.16707722
0.34075259
0.79940608
1.2788605
1.3397238
0.97931777
0.57492159
0.57870006
0.79467653
0.83415885
0.71820352
0.52913109
0.33742444
0.18951107
0.097702478
0.047467464
0.021973847
0.0096794513
0.004011731
0.001532726
0.00052657329
0.00017075931
0.00010519968
0.00029997577
0.0021652494
0.095332454
0.10523234
0.10822556
0.1107186
0.12358313
0.16683914
0.33940087
0.79593568
1.2744355
1.3355952
0.97632124
0.57359293
0.5785885
0.79427852
0.83356229
0.71758318
0.52859478
0.33702148
0.18926458
0.097570623
0.047402825
0.021944073
0.0096664781
0.004006422
0.0015307228
0.00052589201
0.00017053733
0.00010505428
0.00029954673
0.0021621394
0.095341516
0.10524096
0.10823134
0.11071319
0.12353919
0.1666021
0.33805527
0.79247127
1.2700131
1.3314684
0.97332654
0.57226708
0.5784816
0.79388527
0.83297056
0.71696708
0.52806181
0.33662082
0.18901938
0.097439398
0.047338471
0.021914418
0.009653552
0.0040011308
0.0015287258
0.00052521263
0.00017031579
0.00010490881
0.00029911706
0.0021590245
0.095350617
0.10524968
0.10823719
0.11070787
0.12349545
0.16636612
0.33671579
0.78901289
1.2655931
1.3273437
0.97033379
0.57094424
0.57837947
0.79349666
0.83238348
0.71635528
0.52753249
0.33622302
0.18877607
0.097309288
0.047274711
0.02188506
0.0096407647
0.0039958997
0.0015267526
0.00052454151
0.00017009662
0.00010476386
0.00029868759
0.0021559111
0.095359761
0.1052585
0.10824311
0.11070263
0.12345191
0.16613118
0.33538242
0.78556059
1.2611759
1.3232211
0.9673431
0.56962463
0.57828237
0.79311288
0.83180109
0.7157475
0.52700628
0.33582731
0.18853394
0.097179763
0.047211218
0.021855817
0.0096280241
0.0039906866
0.0015247857
0.00052387243
0.000169878
0.00010461904
0.00029825822
0.0021527981
0.095368951
0.10526742
0.10824911
0.11069749
0.12340856
0.16589728
0.33405516
0.78211441
1.2567612
1.3191005
0.96435466
0.56830866
0.57819071
0.79273396
0.83122331
0.71514379
0.52648339
0.33543405
0.18829337
0.09705112
0.047148185
0.021826798
0.0096153869
0.003985518
0.0015228364
0.00052320944
0.00016966124
0.00010447496
0.00029783043
0.0021496968
0.095378192
0.10527645
0.1082552
0.11069243
0.12336542
0.16566442