/*--------------------------------*- C++ -*----------------------------------*\
| =========                 |                                                 |
| \\      /  F ield         | OpenFOAM: The Open Source CFD Toolbox           |
|  \\    /   O peration     | Version:  v2012                                 |
|   \\  /    A nd           | Website:  www.openfoam.com                      |
|    \\/     M anipulation  |                                                 |
\*---------------------------------------------------------------------------*/
FoamFile
{
    version     2.0;
    format      ascii;
    class       volScalarField;
    location    "350";
    object      Ma;
}
// * * * * * * * * * * * * * * * * * * * * * * * * * * * * * * * * * * * * * //

dimensions      [0 0 0 0 0 0 0];


internalField   nonuniform List<scalar> 
24000
(
0.040385946
0.04072918
0.041284521
0.041784805
0.04240217
0.042727206
0.040968645
0.038554264
0.036785742
0.035368415
0.033861659
0.031862107
0.02906189
0.02574161
0.022357931
0.019118888
0.016141792
0.01347894
0.011142324
0.0091225987
0.0073964602
0.0059323568
0.0046969021
0.0036581808
0.002787152
0.002058121
0.0014487648
0.00093993357
0.00051533762
0.0001612022
0.040376152
0.040720499
0.0412787
0.041785835
0.042414728
0.042760681
0.041027623
0.038611514
0.036832858
0.03540799
0.033898374
0.031901689
0.029108324
0.025794883
0.022418009
0.019186092
0.016216866
0.013562913
0.011235693
0.0092243709
0.0075036816
0.0060405456
0.0048009921
0.0037535017
0.0028700512
0.0021262211
0.0015009279
0.00097607097
0.00053616667
0.00016800487
0.040367782
0.040711813
0.041268494
0.041771396
0.042391908
0.042728664
0.040996304
0.038577338
0.036797106
0.035373857
0.033867401
0.031874793
0.029086697
0.025777666
0.022403644
0.019172785
0.016202529
0.013545169
0.011212485
0.0091947762
0.0074684126
0.0060016258
0.0047611028
0.0037153079
0.0028357633
0.0020973997
0.0014784755
0.00096031749
0.00052699602
0.00016498221
0.040358404
0.040702016
0.041257588
0.041758645
0.042376697
0.042715949
0.04099364
0.038572335
0.03678814
0.035363137
0.033856478
0.031864859
0.029079259
0.02577329
0.022402402
0.019173835
0.016205403
0.013550027
0.011219702
0.0092045451
0.0074804229
0.0060151105
0.0047750626
0.003728752
0.0028478736
0.0021076009
0.0014864354
0.00096591134
0.00053025859
0.00016606043
0.040348684
0.04069171
0.0412461
0.04174552
0.042361818
0.042704397
0.040991278
0.038566377
0.036777317
0.035349402
0.033841252
0.031849145
0.029064442
0.025760504
0.022391732
0.019165275
0.016198403
0.013543963
0.011214102
0.0091990936
0.0074750229
0.0060098293
0.0047700639
0.0037242162
0.002843952
0.0021043915
0.0014839821
0.00096421229
0.00052927778
0.00016573896
0.040338652
0.040681097
0.041234509
0.041732796
0.042348116
0.042694676
0.040990888
0.038562411
0.036768195
0.035336917
0.033826905
0.031833905
0.029049496
0.025747165
0.022380261
0.019155621
0.01619042
0.013537481
0.011208967
0.0091951548
0.0074721126
0.0060077619
0.0047686553
0.0037232974
0.002843381
0.0021040562
0.0014837991
0.00096412267
0.00052924182
0.00016573158
0.040328414
0.040670315
0.0412229
0.041720306
0.042334929
0.042685538
0.040990986
0.038558933
0.036759222
0.035324381
0.033812282
0.031818064
0.029033496
0.025732434
0.02236721
0.019144339
0.016180861
0.013529499
0.011202376
0.0091897626
0.0074677352
0.0060042363
0.0047658466
0.0037210931
0.0028416878
0.0021027957
0.0014829046
0.00096353791
0.00052891879
0.00016562967
0.040318038
0.040659438
0.041211315
0.041707989
0.042321993
0.042676694
0.040991362
0.038555774
0.036750459
0.03531194
0.033797638
0.031802054
0.029017109
0.025717156
0.022353538
0.019132424
0.016170699
0.01352098
0.01119534
0.0091840317
0.0074631262
0.0060005739
0.0047629753
0.0037188777
0.0028400144
0.0021015689
0.001482046
0.000962983
0.00052861516
0.00016553472
0.040307569
0.040648508
0.041199745
0.041695776
0.042309212
0.042667968
0.040991865
0.038552782
0.036741786
0.0352995
0.033782928
0.031785887
0.029000435
0.025701496
0.022339434
0.019120062
0.016160102
0.013512053
0.011187932
0.0091779687
0.007458225
0.0059966586
0.0047598895
0.0037164848
0.0028381985
0.0021002322
0.001481107
0.00096237428
0.00052828117
0.00016543
0.040297037
0.040637542
0.041188191
0.04168361
0.042296511
0.042659276
0.040992423
0.038549882
0.036733152
0.035287069
0.033768179
0.031769625
0.028983594
0.025685617
0.022325086
0.01910745
0.016149266
0.013502907
0.011180334
0.0091717451
0.0074531928
0.0059926395
0.0047567235
0.003714031
0.0028363376
0.0020988633
0.0014801459
0.00096175149
0.00052793956
0.00016532289
0.040286462
0.040626552
0.041176643
0.041671464
0.042283852
0.042650591
0.04099301
0.038547063
0.036724551
0.035274625
0.0337534
0.031753297
0.028966641
0.025669596
0.022310582
0.01909468
0.016138277
0.013493621
0.011172611
0.0091654153
0.0074480716
0.0059885474
0.0047534988
0.0037115313
0.0028344417
0.0020974685
0.0014791666
0.0009611168
0.00052759137
0.0001652137
0.040275855
0.040615546
0.041165096
0.041659331
0.042271213
0.042641882
0.040993615
0.038544274
0.036715973
0.035262178
0.033738591
0.031736919
0.028949612
0.025653483
0.022295981
0.019081812
0.016127197
0.013484253
0.011164817
0.0091590269
0.0074429025
0.0059844181
0.0047502454
0.00370901
0.0028325299
0.0020960623
0.0014781795
0.00096047713
0.00052724047
0.00016510366
0.040265224
0.040604525
0.041153545
0.041647198
0.042258563
0.042633143
0.040994218
0.038541546
0.036707393
0.035249718
0.033723762
0.031720503
0.028932529
0.025637309
0.022281314
0.019068878
0.016116054
0.013474828
0.011156973
0.0091525956
0.0074376981
0.0059802603
0.0047469697
0.0037064717
0.0028306054
0.002094647
0.0014771861
0.00095983353
0.00052688743
0.00016499294
0.040254573
0.04059349
0.041141985
0.041635053
0.042245877
0.042624375
0.040994827
0.038538828
0.03669884
0.035237253
0.033708914
0.031704056
0.028915405
0.025621091
0.022266604
0.019055904
0.016104875
0.01346537
0.011149103
0.0091461431
0.0074324772
0.0059760901
0.0047436849
0.003703927
0.0028286765
0.0020932287
0.0014761908
0.00095918866
0.00052653369
0.000164882
0.040243906
0.040582443
0.041130417
0.041622902
0.042233189
0.042615562
0.040995431
0.038536174
0.036690302
0.035224788
0.03369405
0.031687586
0.028898251
0.025604842
0.022251864
0.0190429
0.016093669
0.01345589
0.011141212
0.0091396741
0.0074272431
0.0059719097
0.0047403925
0.003701377
0.0028267438
0.002091808
0.0014751939
0.00095854288
0.00052617949
0.00016477091
0.040233222
0.040571384
0.041118837
0.041610742
0.042220495
0.042606716
0.040996031
0.038533517
0.036681765
0.03521232
0.03367917
0.031671094
0.028881073
0.025588569
0.022237103
0.019029879
0.016082447
0.013446397
0.011133312
0.0091331981
0.0074220044
0.0059677267
0.0047370989
0.0036988266
0.0028248114
0.0020903876
0.0014741975
0.00095789746
0.0005258255
0.0001646599
0.040222525
0.040560312
0.041107247
0.041598573
0.042207797
0.042597823
0.040996636
0.038530928
0.036673254
0.03519985
0.033664278
0.031654584
0.028863873
0.025572278
0.022222326
0.019016841
0.01607121
0.013436889
0.011125399
0.0091267111
0.0074167564
0.0059635361
0.0047337993
0.0036962718
0.0028228756
0.0020889649
0.0014731995
0.0009572511
0.00052547102
0.00016454874
0.040211813
0.040549228
0.041095645
0.041586394
0.042195092
0.042588888
0.040997226
0.038528338
0.036664753
0.035187373
0.033649377
0.031638058
0.028846655
0.025555972
0.022207538
0.019003796
0.016059967
0.013427378
0.011117484
0.0091202234
0.0074115087
0.0059593463
0.004730501
0.0036937182
0.002820941
0.0020875433
0.0014722023
0.00095660529
0.00052511682
0.00016443766
0.040201088
0.040538131
0.041084031
0.041574204
0.042182349
0.042579914
0.040997814
0.038525808
0.036656262
0.035174905
0.033634472
0.03162152
0.028829422
0.025539653
0.02219274
0.018990743
0.016048718
0.013417862
0.011109564
0.0091137314
0.0074062573
0.0059551537
0.0047272003
0.003691163
0.0028190053
0.002086121
0.0014712047
0.00095595925
0.00052476252
0.00016432655
0.04019035
0.040527024
0.041072405
0.041562005
0.042169578
0.042570896
0.040998403
0.038523285
0.036647797
0.035162434
0.033619557
0.03160497
0.028812175
0.025523325
0.022177935
0.018977686
0.016037467
0.013408345
0.011101646
0.0091072416
0.0074010087
0.0059509643
0.0047239026
0.0036886105
0.0028170719
0.0020847005
0.0014702084
0.00095531414
0.00052440873
0.0001642156
0.0401796
0.040515904
0.041060768
0.041549797
0.042156799
0.042561842
0.040998975
0.038520812
0.036639335
0.035149968
0.033604637
0.031588409
0.028794915
0.025506989
0.022163124
0.018964623
0.016026211
0.013398823
0.011093722
0.0091007467
0.0073957555
0.0059467708
0.0047206017
0.0036860555
0.0028151367
0.0020832788
0.0014692113
0.00095466853
0.00052405469
0.00016410459
0.040168836
0.040504774
0.041049119
0.041537566
0.042144013
0.042552737
0.040999548
0.038518357
0.036630894
0.035137498
0.033589709
0.031571836
0.028777643
0.025490645
0.022148309
0.018951559
0.016014956
0.013389303
0.011085801
0.0090942552
0.0073905057
0.0059425806
0.0047173037
0.003683503
0.0028132035
0.0020818587
0.0014682153
0.00095402362
0.00052370102
0.00016399368
0.040158058
0.040493632
0.041037459
0.04152532
0.042131224
0.042543598
0.041000113
0.038515941
0.036622477
0.035125029
0.033574774
0.031555251
0.028760361
0.025474295
0.022133491
0.018938494
0.0160037
0.013379783
0.01107788
0.0090877629
0.0073852549
0.0059383894
0.0047140048
0.0036809496
0.0028112697
0.0020804381
0.0014672191
0.00095337857
0.00052334729
0.00016388277
0.040147269
0.04048248
0.041025788
0.041513066
0.042118427
0.042534413
0.041000664
0.038513554
0.036614058
0.035112567
0.033559829
0.031538655
0.028743068
0.02545794
0.022118671
0.018925429
0.015992445
0.013370265
0.011069962
0.0090812745
0.0073800083
0.0059342023
0.0047107096
0.0036783996
0.0028093386
0.0020790196
0.0014662244
0.00095273456
0.00052299414
0.00016377203
0.040136469
0.040471318
0.041014105
0.041500795
0.042105582
0.042525184
0.041001218
0.038511194
0.036605673
0.035100107
0.033544877
0.031522047
0.028725765
0.025441578
0.022103847
0.018912362
0.015981189
0.013360745
0.01106204
0.0090747821
0.0073747575
0.0059300113
0.0047074111
0.0036758469
0.0028074054
0.0020775997
0.0014652287
0.00095208996
0.00052264069
0.00016366121
0.040125658
0.040460145
0.041002412
0.041488511
0.042092721
0.042515923
0.041001754
0.038508878
0.036597301
0.035087648
0.033529921
0.031505429
0.028708453
0.025425212
0.022089022
0.018899296
0.015969935
0.013351229
0.011054123
0.0090682938
0.0073695105
0.0059258235
0.0047041152
0.0036732962
0.0028054737
0.0020761808
0.0014642337
0.00095144573
0.00052228741
0.00016355044
0.040114837
0.040448962
0.040990703
0.041476218
0.042079855
0.042506608
0.041002281
0.038506572
0.036588934
0.035075183
0.033514962
0.031488799
0.028691131
0.02540884
0.022074195
0.018886231
0.015958682
0.013341713
0.011046205
0.0090618043
0.0073642618
0.0059216338
0.0047008173
0.0036707438
0.0028035407
0.0020747608
0.0014632379
0.000950801
0.00052193387
0.00016343958
0.040104005
0.040437768
0.040978985
0.041463916
0.042066983
0.042497264
0.041002811
0.038504325
0.036580599
0.03506273
0.033499994
0.031472159
0.028673801
0.025392466
0.02205937
0.018873168
0.015947434
0.013332202
0.011038293
0.0090553211
0.0073590193
0.00591745
0.0046975248
0.003668196
0.0028016114
0.0020733436
0.0014622442
0.00095015762
0.00052158108
0.00016332897
0.040093163
0.040426564
0.040967253
0.041451605
0.042054108
0.04248787
0.041003316
0.038502077
0.036572268
0.035050274
0.033485024
0.031455508
0.028656461
0.025376086
0.022044541
0.018860104
0.015936184
0.01332269
0.011030378
0.0090488337
0.0073537723
0.0059132617
0.0046942283
0.0036656448
0.0027996795
0.0020719245
0.001461249
0.00094951337
0.00052122786
0.00016321822
0.040082311
0.04041535
0.040955505
0.041439285
0.042041221
0.042478432
0.041003817
0.038499896
0.036563955
0.035037825
0.033470046
0.031438845
0.028639112
0.025359702
0.022029713
0.018847043
0.015924938
0.013313182
0.011022467
0.0090423507
0.0073485291
0.0059090765
0.004690934
0.0036630953
0.0027977486
0.002070506
0.0014602543
0.00094886928
0.00052087469
0.00016310746
0.040071449
0.040404126
0.040943748
0.041426958
0.042028286
0.042468963
0.041004312
0.038497718
0.036555669
0.035025371
0.033455059
0.031422173
0.028621756
0.025343315
0.022014885
0.018833984
0.015913696
0.013303676
0.011014559
0.0090358686
0.007343286
0.005904891
0.0046876392
0.0036605451
0.0027958172
0.0020690869
0.0014592591
0.00094822496
0.0005205214
0.00016299668
0.040060577
0.040392891
0.040931982
0.041414622
0.042015343
0.04245944
0.041004783
0.038495591
0.036547378
0.035012918
0.033440065
0.03140549
0.028604392
0.025326926
0.022000058
0.018820929
0.015902458
0.013294176
0.011006657
0.0090293932
0.0073380496
0.0059007118
0.0046843501
0.0036579999
0.0027938897
0.002067671
0.0014582662
0.00094758213
0.00052016894
0.00016288617
0.040049696
0.040381647
0.040920206
0.04140228
0.042002394
0.042449892
0.041005253
0.038493483
0.036539123
0.035000471
0.033425061
0.031388796
0.028587018
0.025310532
0.021985231
0.018807874
0.015891221
0.013284676
0.010998753
0.009022914
0.0073328087
0.0058965279
0.0046810566
0.0036554507
0.0027919591
0.0020662527
0.0014572716
0.0009469382
0.00051981589
0.00016277547
0.040038806
0.040370394
0.040908422
0.041389916
0.041989442
0.042440287
0.041005708
0.038491409
0.036530879
0.034988027
0.033410054
0.03137209
0.028569636
0.025294135
0.021970404
0.018794823
0.015879989
0.013275181
0.010990855
0.009016441
0.0073275731
0.0058923484
0.0046777665
0.0036529042
0.0027900303
0.0020648356
0.0014562778
0.00094629466
0.00051946302
0.00016266481
0.040027907
0.040359133
0.040896628
0.041377541
0.041976488
0.042430647
0.041006142
0.03848937
0.036522642
0.034975581
0.033395043
0.031355377
0.028552246
0.025277737
0.021955579
0.018781775
0.015868761
0.01326569
0.010982959
0.0090099689
0.0073223378
0.0058881686
0.0046744758
0.003650357
0.0027881008
0.002063418
0.0014552837
0.00094565092
0.00051911005
0.00016255413
0.040016999
0.040347862
0.040884826
0.041365159
0.041963516
0.042420972
0.041006575
0.03848735
0.036514437
0.03496313
0.033380025
0.031338655
0.028534849
0.025261336
0.021940756
0.018768732
0.015857539
0.013256206
0.010975071
0.0090035046
0.0073171103
0.0058839955
0.004671191
0.0036478146
0.0027861753
0.0020620033
0.0014542917
0.00094500857
0.00051875784
0.00016244369
0.040006081
0.040336584
0.040873016
0.04135276
0.041950501
0.042411243
0.041006987
0.038485382
0.036506233
0.03495069
0.033365001
0.031321924
0.028517443
0.025244932
0.021925932
0.018755689
0.015846317
0.013246721
0.010967181
0.0089970365
0.0073118782
0.0058798176
0.0046679017
0.0036452684
0.0027842466
0.0020605862
0.0014532979
0.00094436508
0.00051840503
0.00016233306
0.039995155
0.040325297
0.040861197
0.041340354
0.041937482
0.042401492
0.04100738
0.038483417
0.036498051
0.03493825
0.03334997
0.031305182
0.028500028
0.025228526
0.021911111
0.018742652
0.015835103
0.013237245
0.010959299
0.0089905765
0.0073066534
0.0058756461
0.0046646175
0.0036427261
0.0027823209
0.0020591712
0.0014523055
0.00094372244
0.00051805264
0.00016222256
0.039984219
0.040314002
0.04084937
0.041327941
0.041924459
0.042391682
0.041007772
0.038481518
0.036489894
0.034925813
0.03333493
0.03128843
0.028482606
0.025212118
0.021896291
0.018729618
0.015823892
0.013227772
0.01095142
0.0089841172
0.0073014289
0.0058714739
0.0046613324
0.0036401828
0.0027803942
0.0020577555
0.0014513126
0.00094307945
0.00051770007
0.00016211201
0.039973276
0.040302699
0.040837535
0.041315521
0.041911434
0.042381842
0.041008138
0.038479624
0.036481735
0.034913369
0.03331988
0.031271667
0.028465176
0.025195708
0.021881472
0.018716588
0.015812686
0.013218305
0.010943547
0.0089776656
0.0072962119
0.0058673087
0.0046580535
0.0036376449
0.0027784718
0.002056343
0.0014503221
0.00094243802
0.00051734837
0.00016200173
0.039962323
0.040291388
0.040825692
0.041303095
0.041898407
0.042371964
0.041008485
0.038477776
0.036473611
0.03490093
0.033304821
0.031254892
0.028447736
0.025179294
0.021866653
0.018703558
0.01580148
0.013208837
0.010935672
0.0089712096
0.0072909899
0.0058631385
0.0046547703
0.003635103
0.0027765464
0.0020549282
0.00144933
0.00094179566
0.00051699615
0.0001618913
0.039951362
0.040280068
0.04081384
0.041290661
0.041885355
0.042362032
0.04100883
0.038475952
0.036465492
0.034888491
0.033289759
0.031238105
0.028430288
0.025162877
0.021851834
0.018690531
0.01579028
0.013199375
0.010927803
0.0089647599
0.0072857736
0.0058589731
0.0046514911
0.0036325642
0.0027746232
0.002053515
0.0014483388
0.00094115382
0.00051664417
0.00016178094
0.039940392
0.040268739
0.04080198
0.041278221
0.041872268
0.042352079
0.041009144
0.038474156
0.036457387
0.034876058
0.03327469
0.031221306
0.028412831
0.025146458
0.021837016
0.018677507
0.015779081
0.013189915
0.010919935
0.0089583097
0.0072805559
0.0058548057
0.0046482096
0.0036300231
0.0027726981
0.0020521001
0.0014473464
0.00094051119
0.00051629176
0.00016167045
0.039929411
0.040257402
0.040790111
0.041265774
0.041859177
0.042342066
0.041009443
0.038472404
0.036449312
0.03486362
0.033259614
0.031204497
0.028395366
0.025130036
0.021822199
0.018664487
0.015767889
0.013180461
0.010912074
0.0089518673
0.007275346
0.0058506458
0.0046449349
0.0036274879
0.0027707777
0.0020506889
0.0014463567
0.00093987033
0.00051594034
0.00016156027
0.039918422
0.040246057
0.040778234
0.041253322
0.041846083
0.042332027
0.041009734
0.03847066
0.036441231
0.034851179
0.033244531
0.031187675
0.028377891
0.025113609
0.021807381
0.018651466
0.015756695
0.013171005
0.010904209
0.0089454197
0.0072701304
0.0058464802
0.004641655
0.0036249482
0.0027688538
0.0020492753
0.0014453651
0.00093922834
0.00051558831
0.00016144991
0.039907424
0.040234701
0.040766347
0.041240848
0.041832987
0.042321944
0.041009992
0.038468978
0.036433188
0.034838744
0.033229438
0.031170841
0.028360408
0.02509718
0.021792563
0.01863845
0.015745506
0.013161555
0.010896351
0.0089389781
0.0072649201
0.005842319
0.0046383785
0.0036224111
0.0027669317
0.0020478627
0.0014443743
0.00093858667
0.00051523641
0.00016133957
0.039896418
0.040223335
0.040754448
0.041228367
0.04181989
0.042311813
0.041010238
0.038467303
0.036425154
0.034826312
0.033214336
0.031153996
0.028342917
0.025080748
0.021777746
0.018625436
0.01573432
0.013152106
0.010888493
0.0089325361
0.0072597085
0.0058381561
0.0046351001
0.0036198721
0.0027650079
0.0020464489
0.0014433824
0.00093794437
0.00051488418
0.00016122914
0.039885405
0.040211962
0.040742542
0.041215876
0.041806763
0.042301661
0.041010472
0.038465675
0.036417129
0.034813879
0.033199225
0.031137141
0.028325418
0.025064314
0.021762932
0.018612426
0.015723141
0.013142665
0.010880643
0.0089261029
0.0072545059
0.0058340017
0.0046318295
0.0036173399
0.0027630897
0.0020450393
0.0014423937
0.00093730416
0.00051453314
0.00016111907
0.039874384
0.040200582
0.040730628
0.041203372
0.041793609
0.042291447
0.041010671
0.038464073
0.036409138
0.034801438
0.033184103
0.031120273
0.02830791
0.025047877
0.021748116
0.018599417
0.015711961
0.013133222
0.010872789
0.008919664
0.0072492967
0.0058298408
0.004628553
0.0036148025
0.0027611673
0.0020436266
0.0014414028
0.00093666254
0.00051418134
0.00016100878
0.039863355
0.040189194
0.0407187
0.041190863
0.041780452
0.042281212
0.041010861
0.038462495
0.036401143
0.034789008
0.033168981
0.031103394
0.028290394
0.025031438
0.021733304
0.018586412
0.015700787
0.013123785
0.010864942
0.0089132327
0.0072440935
0.0058256848
0.0046252804
0.0036122678
0.0027592468
0.0020422151
0.0014404127
0.00093602124
0.00051382966
0.00016089851
0.039852319
0.040177799
0.040706764
0.041178348
0.041767293
0.04227093
0.041011034
0.038460969
0.036393184
0.034776581
0.03315385
0.031086505
0.028272872
0.025014999
0.021718494
0.018573412
0.015689617
0.013114352
0.010857097
0.0089068024
0.0072388902
0.0058215285
0.0046220067
0.0036097321
0.0027573254
0.0020408029
0.001439422
0.00093537962
0.00051347781
0.00016078819
0.039841276
0.040166398
0.040694821
0.041165828
0.041754134
0.042260606
0.041011173
0.038459449
0.036385239
0.034764153
0.033138715
0.031069609
0.028255343
0.024998558
0.021703686
0.018560416
0.015678454
0.013104926
0.01084926
0.0089003804
0.0072336951
0.0058173799
0.00461874
0.0036072024
0.0027554087
0.0020393943
0.0014384339
0.00093473976
0.00051312695
0.00016067818
0.039830225
0.040154989
0.040682871
0.041153303
0.041740971
0.042250259
0.041011302
0.038457991
0.036377301
0.03475172
0.033123572
0.031052703
0.028237806
0.024982114
0.021688879
0.018547422
0.015667291
0.013095499
0.01084142
0.0088939535
0.0072284942
0.0058132253
0.0046154677
0.0036046677
0.0027534881
0.0020379827
0.0014374438
0.00093409852
0.00051277534
0.00016056795
0.039819167
0.040143574
0.040670915
0.041140773
0.041727781
0.04223985
0.04101141
0.038456546
0.036369401
0.034739294
0.033108419
0.031035788
0.028220262
0.02496567
0.021674076
0.018534433
0.015656135
0.013086079
0.010833588
0.0088875343
0.0072233002
0.0058090767
0.0046122003
0.0036021371
0.0027515703
0.0020365731
0.0014364549
0.00093345801
0.00051242409
0.00016045781
0.039808101
0.040132151
0.040658952
0.041128237
0.041714565
0.042229423
0.041011485
0.038455137
0.036361498
0.034726871
0.033093258
0.031018863
0.028202712
0.024949225
0.021659276
0.018521449
0.015644983
0.013076662
0.010825758
0.0088811155
0.0072181058
0.0058049268
0.0046089313
0.0035996049
0.002749651
0.0020351622
0.0014354651
0.00093281695
0.00051207255
0.00016034759
0.039797029
0.040120722
0.040646982
0.041115696
0.041701347
0.042218946
0.04101155
0.038453769
0.036353631
0.034714452
0.033078089
0.031001928
0.028185155
0.02493278
0.021644479
0.01850847
0.015633837
0.013067254
0.010817936
0.0088747055
0.0072129198
0.0058007852
0.0046056694
0.0035970786
0.0027477366
0.0020337551
0.0014344779
0.00093217763
0.00051172196
0.00016023767
0.039785949
0.040109286
0.040635005
0.041103152
0.041688127
0.042208429
0.04101159
0.038452416
0.036345778
0.034702027
0.033062911
0.030984982
0.028167591
0.024916332
0.021629683
0.018495492
0.015622693
0.013057844
0.010810111
0.0088682917
0.0072077293
0.0057966389
0.0046024031
0.0035945487
0.0027458192
0.0020323458
0.0014334893
0.00093153739
0.00051137088
0.00016012761
0.039774862
0.040097844
0.040623022
0.041090587
0.041674907
0.042197891
0.041011596
0.038451119
0.036337934
0.034689606
0.033047731
0.030968026
0.028150021
0.024899886
0.02161489
0.01848252
0.015611555
0.013048442
0.010802295
0.0088618852
0.0072025453
0.0057924982
0.0045991413
0.0035920221
0.0027439043
0.0020309383
0.0014325017
0.00093089778
0.0005110201
0.00016001762
0.039763768
0.040086395
0.040611033
0.041078016
0.041661682
0.042187289
0.041011592
0.038449836
0.03633013
0.034677189
0.033032542
0.030951059
0.028132445
0.024883439
0.021600099
0.018469552
0.015600421
0.013039043
0.010794479
0.0088554785
0.00719736
0.0057883553
0.0045958771
0.0035894933
0.0027419873
0.0020295291
0.0014315129
0.00093025736
0.00051066887
0.0001599075
0.039752667
0.040074939
0.040599037
0.041065435
0.041648433
0.042176671
0.04101156
0.038448596
0.036322322
0.034664779
0.033017351
0.030934083
0.028114863
0.024866994
0.021585313
0.018456591
0.015589295
0.013029653
0.010786673
0.0088490812
0.0071921838
0.005784221
0.0045926205
0.0035869708
0.0027400754
0.0020281238
0.001430527
0.00092961878
0.00051031866
0.0001597977
0.039741559
0.040063477
0.040587036
0.041052845
0.041635159
0.042166004
0.041011494
0.038447391
0.036314557
0.034652365
0.033002152
0.030917097
0.028097277
0.024850547
0.021570528
0.018443631
0.015578171
0.013020263
0.010778865
0.0088426809
0.0071870039
0.0057800828
0.0045893602
0.0035844451
0.0027381611
0.0020267166
0.0014295397
0.00092897941
0.00050996804
0.00015968779
0.039730445
0.040052008
0.040575028
0.04104025
0.041621883
0.042155298
0.041011417
0.038446205
0.036306801
0.03463995
0.032986943
0.030900102
0.028079685
0.024834102
0.021555748
0.018430678
0.015567054
0.013010881
0.010771065
0.0088362878
0.0071818301
0.0057759495
0.0045861036
0.0035819222
0.0027362485
0.0020253107
0.0014285531
0.00092834038
0.00050961756
0.00015957791
0.039719323
0.040040533
0.040563014
0.041027651
0.041608607
0.042144573
0.04101131
0.038445073
0.03629906
0.034627544
0.032971726
0.030883097
0.028062088
0.024817656
0.02154097
0.018417729
0.015555941
0.013001502
0.010763267
0.0088298952
0.0071766559
0.0057718152
0.0045828457
0.0035793979
0.0027343348
0.0020239036
0.0014275657
0.00092770085
0.00050926682
0.00015946795
0.039708193
0.040029051
0.040550994
0.041015047
0.04159533
0.042133781
0.041011168
0.038443957
0.036291359
0.034615145
0.0329565
0.030866083
0.028044487
0.024801212
0.021526196
0.018404786
0.015544836
0.012992132
0.010755478
0.0088235122
0.0071714912
0.00576769
0.004579596
0.0035768809
0.002732427
0.0020225011
0.0014265816
0.00092706349
0.00050891728
0.00015935837
0.039697054
0.040017563
0.040538968
0.041002439
0.041582047
0.042122975
0.041011013
0.038442883
0.036283653
0.034602742
0.032941268
0.030849059
0.02802688
0.024784766
0.021511424
0.018391844
0.015533731
0.01298276
0.010747686
0.008817124
0.0071663207
0.0057635588
0.0045763409
0.0035743591
0.0027305154
0.0020210957
0.0014255955
0.00092642484
0.00050856708
0.00015924859
0.039685907
0.040006068
0.040526935
0.040989826
0.041568743
0.042112121
0.041010825
0.038441845
0.036275996
0.034590335
0.032926032
0.030832024
0.028009268
0.024768321
0.021496654
0.018378907
0.015522632
0.012973394
0.0107399
0.0088107421
0.0071611554
0.0057594318
0.0045730888
0.0035718395
0.0027286052
0.0020196912
0.0014246099
0.00092578638
0.00050821694
0.0001591388
0.039674754
0.039994566
0.04051489
0.040977208
0.041555413
0.042101227
0.041010602
0.038440826
0.036268342
0.034577939
0.032910789
0.030814981
0.027991653
0.024751877
0.021481888
0.018365974
0.015511538
0.012964032
0.010732117
0.0088043611
0.0071559903
0.0057553044
0.0045698361
0.0035693191
0.0027266943
0.002018286
0.0014236237
0.0009251476
0.00050786664
0.00015902897
0.039663595
0.039983056
0.040502839
0.040964586
0.041542081
0.042090316
0.041010364
0.03843986
0.036260716
0.034565551
0.032895541
0.030797928
0.027974035
0.024735436
0.021467128
0.018353049
0.01550045
0.012954678
0.010724342
0.0087979892
0.0071508344
0.0057511856
0.0045665912
0.0035668054
0.0027247889
0.0020168851
0.0014226407
0.00092451091
0.00050751751
0.00015891951
0.039652428
0.03997154
0.040490781
0.040951961
0.041528749
0.042079336
0.041010092
0.038438911
0.036253119
0.03455316
0.032880284
0.030780869
0.027956411
0.024718994
0.021452368
0.018340124
0.015489363
0.012945322
0.010716564
0.0087916119
0.0071456727
0.0057470605
0.0045633403
0.0035642867
0.0027228794
0.0020154811
0.0014216556
0.00092387281
0.00050716761
0.00015880982
0.039641256
0.039960018
0.040478717
0.040939318
0.041515416
0.042068342
0.041009783
0.038438
0.036245526
0.034540764
0.032865019
0.030763802
0.027938784
0.024702554
0.021437613
0.018327205
0.015478283
0.012935975
0.010708794
0.0087852422
0.0071405178
0.0057429413
0.0045600943
0.0035617717
0.0027209726
0.002014079
0.0014206717
0.00092323542
0.00050681806
0.00015870021
0.039630077
0.03994849
0.04046664
0.040926669
0.041502077
0.042057306
0.041009459
0.038437133
0.036237984
0.034528384
0.032849745
0.030746729
0.027921155
0.024686116
0.021422863
0.018314292
0.015467207
0.01292663
0.010701026
0.0087788726
0.0071353624
0.0057388205
0.0045568465
0.0035592549
0.0027190643
0.0020126756
0.0014196869
0.00092259744
0.0005064682
0.00015859052
0.039618892
0.039936956
0.040454558
0.040914008
0.041488723
0.042046226
0.0410091
0.038436281
0.03623044
0.034516009
0.032834463
0.030729648
0.027903524
0.024669684
0.021408119
0.018301386
0.015456139
0.012917294
0.010693267
0.0087725119
0.0071302158
0.0057347079
0.0045536058
0.0035567442
0.0027171609
0.002011276
0.0014187048
0.00092196124
0.00050611932
0.00015848113
0.039607701
0.039925417
0.040442471
0.040901341
0.04147534
0.042035135
0.041008704
0.038435482
0.036222943
0.034503636
0.032819178
0.030712558
0.02788589
0.024653254
0.021393379
0.018288483
0.015445073
0.012907958
0.010685505
0.008766147
0.0071250641
0.00573059
0.0045503606
0.0035542293
0.0027152541
0.0020098739
0.001417721
0.00092132393
0.00050576985
0.00015837158
0.039596504
0.039913872
0.040430379
0.04088867
0.041461956
0.042023972
0.04100829
0.038434707
0.03621546
0.034491258
0.032803888
0.03069546
0.027868255
0.024636829
0.021378646
0.018275589
0.015434015
0.012898631
0.010677751
0.0087597905
0.0071199199
0.0057264785
0.0045471207
0.0035517185
0.0027133505
0.0020084739
0.0014167385
0.00092068745
0.00050542078
0.00015826213
0.0395853
0.039902321
0.040418283
0.040875996
0.041448573
0.042012795
0.041007841
0.038433964
0.036208001
0.034478895
0.032788594
0.030678354
0.027850619
0.024620409
0.021363918
0.0182627
0.015422963
0.012889306
0.010669999
0.0087534334
0.0071147739
0.0057223644
0.004543878
0.0035492049
0.0027114445
0.002007072
0.0014157547
0.00092005012
0.00050507122
0.00015815253
0.039574091
0.039890764
0.040406181
0.040863319
0.041435191
0.042001584
0.041007354
0.038433266
0.036200581
0.034466541
0.032773294
0.030661241
0.027832983
0.024603994
0.021349199
0.018249822
0.015411919
0.012879992
0.010662257
0.0087470863
0.0071096376
0.0057182595
0.0045406434
0.0035466983
0.0027095441
0.0020056744
0.0014147739
0.00091941482
0.00050472279
0.0001580433
0.039562875
0.039879201
0.040394074
0.040850638
0.041421803
0.041990321
0.041006845
0.038432585
0.036193165
0.034454189
0.032757986
0.030644119
0.027815347
0.024587585
0.021334486
0.018236948
0.015400879
0.012870677
0.010654513
0.0087407354
0.0071044965
0.0057141494
0.004537404
0.0035441874
0.0027076403
0.0020042744
0.0014137914
0.00091877838
0.00050437375
0.0001579339
0.039551653
0.039867632
0.040381963
0.040837954
0.041408402
0.041979049
0.041006302
0.03843195
0.036185806
0.034441833
0.032742669
0.030626988
0.02779771
0.024571181
0.02131978
0.018224083
0.015389849
0.012861372
0.010646778
0.0087343924
0.0070993624
0.0057100453
0.0045341693
0.0035416802
0.0027057391
0.0020028761
0.0014128099
0.00091814258
0.00050402502
0.00015782457
0.039540425
0.039856058
0.040369846
0.040825266
0.041394972
0.041967713
0.041005719
0.038431351
0.036178448
0.034429491
0.032727343
0.030609849
0.027780074
0.024554783
0.021305081
0.018211224
0.015378823