/*--------------------------------*- C++ -*----------------------------------*\
| =========                 |                                                 |
| \\      /  F ield         | OpenFOAM: The Open Source CFD Toolbox           |
|  \\    /   O peration     | Version:  v2012                                 |
|   \\  /    A nd           | Website:  www.openfoam.com                      |
|    \\/     M anipulation  |                                                 |
\*---------------------------------------------------------------------------*/
FoamFile
{
    version     2.0;
    format      ascii;
    class       volScalarField;
    location    "350";
    object      nut;
}
// * * * * * * * * * * * * * * * * * * * * * * * * * * * * * * * * * * * * * //

dimensions      [0 2 -1 0 0 0 0];


internalField   nonuniform List<scalar> 
24000
(
4.0446467e-05
1.0897302e-05
1.026564e-05
8.9907378e-06
4.982302e-06
2.9889599e-06
4.3106454e-06
5.4429056e-06
5.571528e-06
5.0542572e-06
4.6491437e-06
2.7153539e-06
1.3168989e-06
8.6567432e-07
5.7527305e-07
3.7568372e-07
2.3284452e-07
1.2750192e-07
5.4669605e-08
2.0195547e-08
6.6023014e-09
1.9501957e-09
5.2390325e-10
1.2664149e-10
2.6761404e-11
4.7277927e-12
7.0348264e-13
1.6330801e-13
1.3168649e-13
1.4074979e-13
4.0444694e-05
1.0777219e-05
1.0019016e-05
8.6428758e-06
4.7429015e-06
2.9661355e-06
4.2725568e-06
5.4174003e-06
5.5709422e-06
5.0664122e-06
4.6595494e-06
2.7290307e-06
1.3209222e-06
8.6603292e-07
5.7697594e-07
3.7760308e-07
2.3449541e-07
1.2849389e-07
5.5136892e-08
2.0372957e-08
6.6605829e-09
1.9675788e-09
5.2866113e-10
1.2782056e-10
2.7021426e-11
4.7813082e-12
7.1906873e-13
1.7437129e-13
1.4345806e-13
1.5327495e-13
4.0443069e-05
1.0821996e-05
1.0186571e-05
8.9800644e-06
4.9369098e-06
3.0041487e-06
4.2753755e-06
5.3955529e-06
5.5483785e-06
5.0444812e-06
4.629768e-06
2.7325786e-06
1.322264e-06
8.6679167e-07
5.7757038e-07
3.7807798e-07
2.3486718e-07
1.2918743e-07
5.5537673e-08
2.0550439e-08
6.7243555e-09
1.987187e-09
5.3399938e-10
1.2911411e-10
2.729209e-11
4.8251312e-12
7.209323e-13
1.7014305e-13
1.3823632e-13
1.4770757e-13
4.0441396e-05
1.0850388e-05
1.0257301e-05
9.0906068e-06
4.9842915e-06
3.0090537e-06
4.2611171e-06
5.3783492e-06
5.5332149e-06
5.0309052e-06
4.6133759e-06
2.7314594e-06
1.3220622e-06
8.6714567e-07
5.7764414e-07
3.7807356e-07
2.3478974e-07
1.2895307e-07
5.5379463e-08
2.0473333e-08
6.6949423e-09
1.9777941e-09
5.3138118e-10
1.2847067e-10
2.7156085e-11
4.8025369e-12
7.1934706e-13
1.7156323e-13
1.4008198e-13
1.496802e-13
4.0439655e-05
1.0887688e-05
1.0323171e-05
9.1716742e-06
5.0126445e-06
3.0129261e-06
4.2502576e-06
5.3661708e-06
5.5220459e-06
5.0212365e-06
4.604505e-06
2.7288219e-06
1.3214844e-06
8.6671573e-07
5.7737222e-07
3.7796082e-07
2.3473958e-07
1.2898342e-07
5.5404724e-08
2.0485951e-08
6.6996501e-09
1.9792488e-09
5.3177513e-10
1.2856556e-10
2.717582e-11
4.8056394e-12
7.1936052e-13
1.7111531e-13
1.3954347e-13
1.49104e-13
4.0437822e-05
1.0918048e-05
1.0365466e-05
9.2155501e-06
5.026343e-06
3.0148496e-06
4.2395294e-06
5.3553635e-06
5.511868e-06
5.012011e-06
4.5966153e-06
2.7251054e-06
1.3205213e-06
8.6636337e-07
5.7708415e-07
3.7777308e-07
2.3460044e-07
1.2885676e-07
5.5336702e-08
2.0456744e-08
6.6892238e-09
1.9760278e-09
5.3089265e-10
1.2835085e-10
2.7130517e-11
4.7977847e-12
7.1834824e-13
1.7103395e-13
1.3953801e-13
1.4909849e-13
4.0435875e-05
1.0942398e-05
1.0394112e-05
9.243511e-06
5.0376113e-06
3.0166868e-06
4.2295788e-06
5.345125e-06
5.502279e-06
5.0036065e-06
4.5898822e-06
2.7208445e-06
1.3193799e-06
8.6588771e-07
5.7672329e-07
3.7754171e-07
2.3444065e-07
1.2872995e-07
5.5273095e-08
2.0430837e-08
6.6802996e-09
1.9733315e-09
5.3016396e-10
1.2817507e-10
2.7093578e-11
4.7913098e-12
7.1740107e-13
1.7082468e-13
1.3937285e-13
1.4892183e-13
4.0433794e-05
1.0961475e-05
1.0413744e-05
9.263292e-06
5.0479785e-06
3.0184511e-06
4.2199482e-06
5.3349582e-06
5.4928232e-06
4.9954621e-06
4.5835809e-06
2.7162663e-06
1.3181348e-06
8.6538701e-07
5.7634431e-07
3.7729367e-07
2.3426624e-07
1.2858592e-07
5.5199772e-08
2.0400642e-08
6.6698184e-09
1.970149e-09
5.2930111e-10
1.2796649e-10
2.7049699e-11
4.7836358e-12
7.1630806e-13
1.7061409e-13
1.392194e-13
1.4875774e-13
4.0431563e-05
1.0976809e-05
1.0428171e-05
9.2793495e-06
5.0580547e-06
3.0202482e-06
4.2104947e-06
5.3248269e-06
5.4834617e-06
4.9874588e-06
4.5775722e-06
2.7115105e-06
1.3168367e-06
8.6486548e-07
5.7595226e-07
3.7703557e-07
2.3408462e-07
1.2843625e-07
5.51237e-08
2.0369369e-08
6.6589775e-09
1.9668602e-09
5.2840995e-10
1.2775115e-10
2.7004406e-11
4.7757095e-12
7.1517141e-13
1.7038679e-13
1.3904977e-13
1.4857625e-13
4.0429168e-05
1.0989624e-05
1.0439618e-05
9.2936669e-06
5.0680292e-06
3.0220917e-06
4.2011376e-06
5.3147078e-06
5.4741494e-06
4.9795214e-06
4.5716433e-06
2.7066477e-06
1.3155105e-06
8.6433673e-07
5.7555565e-07
3.767734e-07
2.3389969e-07
1.2828307e-07
5.504576e-08
2.0337316e-08
6.6478653e-09
1.9634892e-09
5.2749661e-10
1.2753047e-10
2.6957995e-11
4.7675885e-12
7.1400725e-13
1.7015433e-13
1.388764e-13
1.483907e-13
4.0426599e-05
1.1000829e-05
1.04494e-05
9.3071577e-06
5.0779723e-06
3.0239837e-06
4.1918469e-06
5.3045978e-06
5.4648633e-06
4.971615e-06
4.565842e-06
2.7017205e-06
1.3141704e-06
8.6380535e-07
5.7515775e-07
3.7650987e-07
2.3371356e-07
1.2812844e-07
5.4967027e-08
2.0304929e-08
6.6366371e-09
1.9600832e-09
5.2657381e-10
1.2730752e-10
2.6911108e-11
4.759384e-12
7.1283021e-13
1.6991826e-13
1.3869981e-13
1.4820168e-13
4.0423845e-05
1.1011038e-05
1.0458267e-05
9.3202858e-06
5.0879447e-06
3.0259238e-06
4.1825957e-06
5.2944875e-06
5.4555858e-06
4.9637197e-06
4.5600966e-06
2.6967532e-06
1.3128245e-06
8.6327465e-07
5.7476089e-07
3.762468e-07
2.3352759e-07
1.2797344e-07
5.4888067e-08
2.0272445e-08
6.6253763e-09
1.9566677e-09
5.2564862e-10
1.2708403e-10
2.6864114e-11
4.7511613e-12
7.1165016e-13
1.69681e-13
1.3852204e-13
1.4801136e-13
4.0420898e-05
1.1020641e-05
1.046663e-05
9.3332666e-06
5.0979516e-06
3.02791e-06
4.173373e-06
5.2843727e-06
5.446309e-06
4.9558262e-06
4.5543705e-06
2.6917589e-06
1.3114774e-06
8.6274597e-07
5.7436605e-07
3.7598497e-07
2.3334235e-07
1.2781862e-07
5.4809135e-08
2.023996e-08
6.6141123e-09
1.953251e-09
5.247231e-10
1.2686046e-10
2.6817107e-11
4.7429365e-12
7.1046934e-13
1.6944302e-13
1.3834343e-13
1.4782011e-13
4.041775e-05
1.1029886e-05
1.0474711e-05
9.3461598e-06
5.1079718e-06
3.0299387e-06
4.1641786e-06
5.2742571e-06
5.4370295e-06
4.9479274e-06
4.5486484e-06
2.6867457e-06
1.3101321e-06
8.6222045e-07
5.7397413e-07
3.7572516e-07
2.3315848e-07
1.2766453e-07
5.4730553e-08
2.0207619e-08
6.6029002e-09
1.9498507e-09
5.2380217e-10
1.2663804e-10
2.6770345e-11
4.7347547e-12
7.0929407e-13
1.692054e-13
1.3816471e-13
1.4762871e-13
4.0414393e-05
1.1038928e-05
1.0482652e-05
9.3590358e-06
5.1180326e-06
3.0320082e-06
4.1550007e-06
5.2641337e-06
5.4277411e-06
4.9400198e-06
4.5429235e-06
2.6817181e-06
1.3087903e-06
8.6169867e-07
5.7358549e-07
3.7546756e-07
2.3297602e-07
1.275112e-07
5.4652306e-08
2.0175405e-08
6.5917305e-09
1.9464631e-09
5.2288467e-10
1.2641645e-10
2.672376e-11
4.7266039e-12
7.0812286e-13
1.6896812e-13
1.3798602e-13
1.4743731e-13
4.041082e-05
1.1047846e-05
1.0490521e-05
9.3719284e-06
5.1281294e-06
3.0341191e-06
4.1458365e-06
5.2540015e-06
5.4184423e-06
4.9321e-06
4.5371909e-06
2.6766792e-06
1.3074529e-06
8.6118105e-07
5.7320048e-07
3.7521246e-07
2.3279524e-07
1.2735883e-07
5.4574519e-08
2.0143377e-08
6.5806262e-09
1.9430957e-09
5.2197278e-10
1.2619625e-10
2.6677471e-11
4.7185051e-12
7.0695865e-13
1.6873167e-13
1.3780766e-13
1.4724625e-13
4.0407025e-05
1.1056679e-05
1.0498349e-05
9.3848151e-06
5.1382344e-06
3.0362694e-06
4.1366919e-06
5.2438634e-06
5.4091341e-06
4.9241671e-06
4.5314493e-06
2.6716306e-06
1.3061206e-06
8.6066748e-07
5.7281901e-07
3.7495977e-07
2.3261602e-07
1.2720739e-07
5.4497143e-08
2.0111505e-08
6.569573e-09
1.9397434e-09
5.2106493e-10
1.2597702e-10
2.6631387e-11
4.7104422e-12
7.0579907e-13
1.6849557e-13
1.3762927e-13
1.4705514e-13
4.0402999e-05
1.1065472e-05
1.0506172e-05
9.3977289e-06
5.1483815e-06
3.0384578e-06
4.1275566e-06
5.2337144e-06
5.3998125e-06
4.9162202e-06
4.5256979e-06
2.6665739e-06
1.3047943e-06
8.6015822e-07
5.724414e-07
3.7470981e-07
2.3243866e-07
1.2705713e-07
5.442035e-08
2.0079874e-08
6.558605e-09
1.9364175e-09
5.2016438e-10
1.2575958e-10
2.6585684e-11
4.7024457e-12
7.0464835e-13
1.6826045e-13
1.3745124e-13
1.4686439e-13
4.0398737e-05
1.1074256e-05
1.0513995e-05
9.4106612e-06
5.1585563e-06
3.040685e-06
4.1184314e-06
5.2235563e-06
5.3904774e-06
4.9082566e-06
4.5199354e-06
2.6615099e-06
1.3034739e-06
8.596534e-07
5.7206762e-07
3.7446244e-07
2.3226299e-07
1.2690788e-07
5.4344017e-08
2.0048421e-08
6.5476968e-09
1.9331095e-09
5.1926862e-10
1.2554329e-10
2.6540223e-11
4.6944912e-12
7.0350315e-13
1.680259e-13
1.3727337e-13
1.4667381e-13
4.0394231e-05
1.1083034e-05
1.0521821e-05
9.4235841e-06
5.1687392e-06
3.0429497e-06
4.109322e-06
5.2133894e-06
5.3811296e-06
4.9002774e-06
4.5141608e-06
2.6564392e-06
1.3021599e-06
8.5915314e-07
5.7169783e-07
3.7421783e-07
2.3208915e-07
1.2675973e-07
5.4268214e-08
2.0017183e-08
6.5368634e-09
1.9298244e-09
5.1837918e-10
1.2532856e-10
2.6495092e-11
4.6865946e-12
7.0236573e-13
1.677923e-13
1.3709594e-13
1.4648369e-13
4.0389475e-05
1.1091813e-05
1.0529661e-05
9.4365448e-06
5.178972e-06
3.0452529e-06
4.1002183e-06
5.2032096e-06
5.371766e-06
4.8922811e-06
4.5083739e-06
2.6513624e-06
1.3008526e-06
8.5865721e-07
5.7133182e-07
3.7397576e-07
2.3191696e-07
1.2661258e-07
5.4192866e-08
1.9986117e-08
6.5260868e-09
1.926556e-09
5.1749417e-10
1.2511488e-10
2.6450181e-11
4.6787358e-12
7.0123323e-13
1.6755916e-13
1.3691859e-13
1.4629364e-13
4.0384462e-05
1.1100613e-05
1.0537505e-05
9.4495113e-06
5.1892207e-06
3.0475944e-06
4.0911259e-06
5.1930199e-06
5.3623883e-06
4.8842678e-06
4.5025753e-06
2.6462798e-06
1.2995522e-06
8.5816574e-07
5.7096982e-07
3.7373651e-07
2.3174668e-07
1.2646666e-07
5.4118123e-08
1.9955301e-08
6.5153986e-09
1.923315e-09
5.1661674e-10
1.2490306e-10
2.6405667e-11
4.6709465e-12
7.0010997e-13
1.6732704e-13
1.3674161e-13
1.4610397e-13
4.0379186e-05
1.1109446e-05
1.0545354e-05
9.4624577e-06
5.1994831e-06
3.0499717e-06
4.0820467e-06
5.1828198e-06
5.352997e-06
4.8762386e-06
4.496764e-06
2.6411921e-06
1.2982588e-06
8.5767879e-07
5.7061177e-07
3.7349992e-07
2.3157812e-07
1.2632179e-07
5.4043857e-08
1.992467e-08
6.504772e-09
1.9200923e-09
5.1574418e-10
1.246924e-10
2.6361395e-11
4.663199e-12
6.9899217e-13
1.6709546e-13
1.3656479e-13
1.4591446e-13
4.037364e-05
1.1118309e-05
1.0553227e-05
9.4754416e-06
5.2097982e-06
3.0523879e-06
4.0729712e-06
5.172607e-06
5.3435896e-06
4.8681901e-06
4.4909387e-06
2.6360993e-06
1.2969727e-06
8.5719653e-07
5.702578e-07
3.7326612e-07
2.3141141e-07
1.2617804e-07
5.3970135e-08
1.9894259e-08
6.4942221e-09
1.9168932e-09
5.1487809e-10
1.2448334e-10
2.6317459e-11
4.6555104e-12
6.978823e-13
1.6686488e-13
1.3638842e-13
1.4572544e-13
4.0367818e-05
1.1127192e-05
1.056111e-05
9.4884263e-06
5.2201235e-06
3.0548432e-06
4.063909e-06
5.1623824e-06
5.3341673e-06
4.8601254e-06
4.4851016e-06
2.6310017e-06
1.2956939e-06
8.567186e-07
5.6990767e-07
3.7303488e-07
2.3124634e-07
1.260353e-07
5.389687e-08
1.9864021e-08
6.4837292e-09
1.9137107e-09
5.1401644e-10
1.2427532e-10
2.6273744e-11
4.6478597e-12
6.9677729e-13
1.6663469e-13
1.3621209e-13
1.4553645e-13
4.0361714e-05
1.1136093e-05
1.0569009e-05
9.5014103e-06
5.2304746e-06
3.0573352e-06
4.0548584e-06
5.1521465e-06
5.3247305e-06
4.8520445e-06
4.4792522e-06
2.6259001e-06
1.2944229e-06
8.5624519e-07
5.6956161e-07
3.7280648e-07
2.3108319e-07
1.2589382e-07
5.3824223e-08
1.983404e-08
6.4733272e-09
1.9105564e-09
5.1316256e-10
1.2406922e-10
2.6230435e-11
4.64028e-12
6.9568163e-13
1.6640542e-13
1.3603601e-13
1.453477e-13
4.0355322e-05
1.1145012e-05
1.0576918e-05
9.5144222e-06
5.2408638e-06
3.0598658e-06
4.0458145e-06
5.1418993e-06
5.3152786e-06
4.8439442e-06
4.4733884e-06
2.620794e-06
1.2931595e-06
8.5577641e-07
5.6921955e-07
3.725807e-07
2.3092171e-07
1.2575333e-07
5.375203e-08
1.9804234e-08
6.4629832e-09
1.9074193e-09
5.1231325e-10
1.238642e-10
2.6187352e-11
4.6327392e-12
6.9459096e-13
1.6617657e-13
1.3585996e-13
1.4515899e-13
4.0348635e-05
1.1153949e-05
1.0584823e-05
9.5274289e-06
5.2512633e-06
3.062434e-06
4.0367841e-06
5.131639e-06
5.3058109e-06
4.8358274e-06
4.4675116e-06
2.615684e-06
1.2919041e-06
8.5531232e-07
5.6888163e-07
3.7235775e-07
2.3076208e-07
1.2561396e-07
5.368038e-08
1.9774647e-08
6.4527158e-09
1.9043057e-09
5.1147041e-10
1.2366078e-10
2.6144607e-11
4.6252575e-12
6.935083e-13
1.6594876e-13
1.3568443e-13
1.4497085e-13
4.0341649e-05
1.1162904e-05
1.0592741e-05
9.5404654e-06
5.2617042e-06
3.0650409e-06
4.0277619e-06
5.121366e-06
5.2963271e-06
4.8276925e-06
4.4616222e-06
2.6105705e-06
1.2906568e-06
8.548527e-07
5.6854763e-07
3.7213737e-07
2.3060409e-07
1.2547561e-07
5.3609187e-08
1.9745234e-08
6.4425055e-09
1.9012088e-09
5.1063198e-10
1.2345839e-10
2.6102078e-11
4.6178128e-12
6.9243031e-13
1.6572127e-13
1.3550886e-13
1.4478263e-13
4.0334358e-05
1.1171869e-05
1.0600673e-05
9.5535312e-06
5.27217e-06
3.0676869e-06
4.0187499e-06
5.1110804e-06
5.2868289e-06
4.8195409e-06
4.4557205e-06
2.6054537e-06
1.2894177e-06
8.5439776e-07
5.6821778e-07
3.7191984e-07
2.3044799e-07
1.2533847e-07
5.3538591e-08
1.9716069e-08
6.4323829e-09
1.8981392e-09
5.0980111e-10
1.2325787e-10
2.6059946e-11
4.6104375e-12
6.9136141e-13
1.654946e-13
1.3533344e-13
1.4459458e-13
4.0326757e-05
1.1180847e-05
1.0608616e-05
9.5666006e-06
5.2826534e-06
3.0703698e-06
4.0097507e-06
5.1007833e-06
5.2773156e-06
4.8113726e-06
4.4498056e-06
2.6003338e-06
1.288187e-06
8.5394751e-07
5.6789202e-07
3.7170499e-07
2.3029358e-07
1.2520233e-07
5.3468449e-08
1.9687077e-08
6.4223177e-09
1.8950864e-09
5.089747e-10
1.2305841e-10
2.6018033e-11
4.6030997e-12
6.9029734e-13
1.6526839e-13
1.3515813e-13
1.4440665e-13
4.0318839e-05
1.1189847e-05
1.0616587e-05
9.5797001e-06
5.293176e-06
3.0730914e-06
4.000759e-06
5.0904743e-06
5.2677863e-06
4.8031851e-06
4.4438775e-06
2.5952112e-06
1.286965e-06
8.5350214e-07
5.675705e-07
3.7149302e-07
2.3014107e-07
1.2506734e-07
5.3398859e-08
1.9658309e-08
6.4123307e-09
1.8920578e-09
5.0815492e-10
1.2286057e-10
2.5976466e-11
4.5958227e-12
6.8924153e-13
1.6504328e-13
1.3498339e-13
1.4421932e-13
4.0310601e-05
1.1198869e-05
1.0624579e-05
9.5928167e-06
5.3037188e-06
3.0758524e-06
3.9917801e-06
5.0801514e-06
5.258242e-06
4.7949822e-06
4.4379377e-06
2.590086e-06
1.2857516e-06
8.5306132e-07
5.6725297e-07
3.7128366e-07
2.2999019e-07
1.2493335e-07
5.3329721e-08
1.9629711e-08
6.4023996e-09
1.8890453e-09
5.0733942e-10
1.2266374e-10
2.5935108e-11
4.5885811e-12
6.8819014e-13
1.648184e-13
1.3480852e-13
1.4403184e-13
4.0302038e-05
1.1207916e-05
1.0632589e-05
9.6059528e-06
5.3142962e-06
3.078652e-06
3.9828122e-06
5.0698171e-06
5.2486829e-06
4.7867624e-06
4.4319857e-06
2.5849587e-06
1.2845473e-06
8.526253e-07
5.669397e-07
3.7107723e-07
2.2984128e-07
1.2480063e-07
5.326121e-08
1.9601374e-08
6.3925608e-09
1.8860617e-09
5.0653189e-10
1.2246888e-10
2.5894169e-11
4.581413e-12
6.8714839e-13
1.6459444e-13
1.3463387e-13
1.4384459e-13
4.0293144e-05
1.1216982e-05
1.0640613e-05
9.619114e-06
5.3249046e-06
3.0814899e-06
3.9738534e-06
5.0594702e-06
5.2391081e-06
4.7785251e-06
4.4260217e-06
2.5798293e-06
1.2833518e-06
8.5219412e-07
5.666306e-07
3.7087352e-07
2.2969407e-07
1.2466892e-07
5.3193154e-08
1.9573211e-08
6.3827795e-09
1.8830949e-09
5.0572884e-10
1.2227508e-10
2.585345e-11
4.5742826e-12
6.8611152e-13
1.6437096e-13
1.3445934e-13
1.4365747e-13
4.0283916e-05
1.1226055e-05
1.0648645e-05
9.6322824e-06
5.335534e-06
3.0843664e-06
3.9649082e-06
5.0491107e-06
5.2295184e-06
4.7702717e-06
4.4200453e-06
2.5746983e-06
1.2821655e-06
8.5176796e-07
5.6632582e-07
3.7067273e-07
2.2954878e-07
1.2453836e-07
5.3125652e-08
1.9545273e-08
6.3730769e-09
1.8801524e-09
5.0493247e-10
1.2208292e-10
2.5813081e-11
4.5672137e-12
6.8508298e-13
1.6414854e-13
1.3428534e-13
1.4347091e-13
4.027435e-05
1.1235132e-05
1.0656687e-05
9.6454737e-06
5.3462018e-06
3.0872836e-06
3.9559749e-06
5.0387398e-06
5.2199143e-06
4.7620001e-06
4.4140562e-06
2.5695655e-06
1.2809884e-06
8.5134653e-07
5.6602511e-07
3.7047457e-07
2.2940511e-07
1.2440878e-07
5.3058585e-08
1.9517497e-08
6.3634265e-09
1.8772249e-09
5.0414002e-10
1.2189168e-10
2.5772899e-11
4.5601764e-12
6.8405832e-13
1.639263e-13
1.3411119e-13
1.4328419e-13
4.0264441e-05
1.1244215e-05
1.066474e-05
9.6586824e-06
5.3568944e-06
3.0902398e-06
3.9470544e-06
5.028355e-06
5.2102942e-06
4.7537136e-06
4.4080568e-06
2.5644313e-06
1.2798207e-06
8.5092997e-07
5.6572869e-07
3.7027938e-07
2.2926344e-07
1.2428048e-07
5.2992146e-08
1.9489982e-08
6.3538692e-09
1.8743265e-09
5.0335567e-10
1.2170245e-10
2.5733147e-11
4.5532147e-12
6.830437e-13
1.637051e-13
1.3393738e-13
1.4309783e-13
4.0254185e-05
1.1253303e-05
1.0672812e-05
9.671912e-06
5.3676159e-06
3.0932336e-06
3.9381464e-06
5.0179594e-06
5.2006599e-06
4.7454103e-06
4.4020457e-06
2.5592961e-06
1.2786625e-06
8.5051836e-07
5.6543648e-07
3.7008694e-07
2.291235e-07
1.241532e-07
5.2926169e-08
1.9462642e-08
6.3443693e-09
1.8714448e-09
5.0257573e-10
1.2151425e-10
2.569361e-11
4.5462897e-12
6.8203378e-13
1.6348434e-13
1.3376366e-13
1.4291155e-13
4.0243579e-05
1.1262399e-05
1.0680902e-05
9.6851654e-06
5.3783687e-06
3.0962676e-06
3.9292506e-06
5.0075514e-06
5.1910109e-06
4.73709e-06
4.3960224e-06
2.5541596e-06
1.2775137e-06
8.5011188e-07
5.6514862e-07
3.6989742e-07
2.2898547e-07
1.2402706e-07
5.2860742e-08
1.9435525e-08
6.3349474e-09
1.8685873e-09
5.0180244e-10
1.2132769e-10
2.5654423e-11
4.5394262e-12
6.8103224e-13
1.6326468e-13
1.335905e-13
1.4272589e-13
4.023262e-05
1.127151e-05
1.0688994e-05
9.6984241e-06
5.3891454e-06
3.0993417e-06
3.9203695e-06
4.9971298e-06
5.1813464e-06
4.7287546e-06
4.3899891e-06
2.5490223e-06
1.2763745e-06
8.4971013e-07
5.6486478e-07
3.697105e-07
2.2884906e-07
1.2390192e-07
5.2795753e-08
1.940857e-08
6.3255776e-09
1.8657446e-09
5.0103301e-10
1.2114203e-10
2.5615419e-11
4.5325935e-12
6.8003454e-13
1.6304525e-13
1.3341727e-13
1.4254013e-13
4.0221304e-05
1.1280628e-05
1.0697084e-05
9.7116984e-06
5.3999548e-06
3.1024546e-06
3.911501e-06
4.9866978e-06
5.1716677e-06
4.7204027e-06
4.3839458e-06
2.5438844e-06
1.2752451e-06
8.4931337e-07
5.6458524e-07
3.6952653e-07
2.2871464e-07
1.2377806e-07
5.2731403e-08
1.9381884e-08
6.3163038e-09
1.8629321e-09
5.0027202e-10
1.2095847e-10
2.5576865e-11
4.5258403e-12
6.7904734e-13
1.6282683e-13
1.3324429e-13
1.4235463e-13
4.0209629e-05
1.1289755e-05
1.0705178e-05
9.7249818e-06
5.4107875e-06
3.1056056e-06
3.9026454e-06
4.9762533e-06
5.1619754e-06
4.7120361e-06
4.3778917e-06
2.5387458e-06
1.2741254e-06
8.4892163e-07
5.6430986e-07
3.6934524e-07
2.2858188e-07
1.2365517e-07
5.2667483e-08
1.9355359e-08
6.3070827e-09
1.8601349e-09
4.9951504e-10
1.2077585e-10
2.5538506e-11
4.51912e-12
6.7806424e-13
1.6260868e-13
1.3307124e-13
1.4216906e-13
4.0197591e-05
1.1298919e-05
1.0713275e-05
9.7382601e-06
5.4216479e-06
3.1087962e-06
3.8938042e-06
4.965797e-06
5.152268e-06
4.7036525e-06
4.371826e-06
2.5336067e-06
1.2730155e-06
8.485351e-07
5.640388e-07
3.6916683e-07
2.28451e-07
1.2353339e-07
5.26041e-08
1.9329052e-08
6.2979379e-09
1.8573612e-09
4.9876457e-10
1.2059484e-10
2.5500489e-11
4.5124603e-12
6.7708947e-13
1.6239168e-13
1.3289883e-13
1.4198418e-13
4.0185189e-05
1.1308134e-05
1.0721381e-05
9.7515287e-06
5.4325389e-06
3.1120274e-06
3.8849774e-06
4.9553273e-06
5.1425449e-06
4.6952533e-06
4.3657514e-06
2.528467e-06
1.2719154e-06
8.4815344e-07
5.6377175e-07
3.6899098e-07
2.283217e-07
1.2341257e-07
5.2541136e-08
1.93029e-08
6.2888425e-09
1.8546017e-09
4.9801775e-10
1.2041467e-10
2.5462645e-11
4.5058294e-12
6.7611823e-13
1.6217486e-13
1.3272631e-13
1.4179916e-13
4.0172419e-05
1.131738e-05
1.0729497e-05
9.7647927e-06
5.4434546e-06
3.1152971e-06
3.8761663e-06
4.9448457e-06
5.1328084e-06
4.6868403e-06
4.3596678e-06
2.5233274e-06
1.2708255e-06
8.4777687e-07
5.6350896e-07
3.6881802e-07
2.2819433e-07
1.2329299e-07
5.2478787e-08
1.9277005e-08
6.2798396e-09
1.8518712e-09
4.9727905e-10
1.2023653e-10
2.5425237e-11
4.4992755e-12
6.7515714e-13
1.6195897e-13
1.3255396e-13
1.4161433e-13
4.015928e-05
1.1326643e-05
1.0737626e-05
9.7780716e-06
5.4544016e-06
3.1186056e-06
3.8673695e-06
4.9343544e-06
5.1230585e-06
4.6784108e-06
4.3535733e-06
2.5181873e-06
1.2697454e-06
8.474055e-07
5.6325034e-07
3.686477e-07
2.2806858e-07
1.2317433e-07
5.2416848e-08
1.9251263e-08
6.2708861e-09
1.849155e-09
4.9654411e-10
1.2005926e-10
2.5388008e-11
4.4927519e-12
6.7419988e-13
1.6174336e-13
1.3238161e-13
1.4142949e-13
4.014577e-05
1.1335925e-05
1.0745765e-05
9.7913548e-06
5.4653744e-06
3.1219543e-06
3.8585881e-06
4.9238491e-06
5.1132934e-06
4.6699669e-06
4.3474694e-06
2.5130467e-06
1.2686756e-06
8.4703947e-07
5.6299606e-07
3.6848026e-07
2.2794471e-07
1.2305679e-07
5.2355446e-08
1.922574e-08
6.2620091e-09
1.8464625e-09
4.9581572e-10
1.1988362e-10
2.5351126e-11
4.4862899e-12
6.7325111e-13
1.6152901e-13
1.3220999e-13
1.4124544e-13
4.0131887e-05
1.1345226e-05
1.0753909e-05
9.8046423e-06
5.4763772e-06
3.1253438e-06
3.8498242e-06
4.913333e-06
5.1035148e-06
4.6615077e-06
4.3413564e-06
2.5079044e-06
1.2676158e-06
8.4667848e-07
5.627458e-07
3.6831535e-07
2.278224e-07
1.229402e-07
5.229446e-08
1.920037e-08
6.2531813e-09
1.843784e-09
4.9509094e-10
1.1970881e-10
2.5314415e-11
4.4798563e-12
6.723058e-13
1.6131476e-13
1.3203818e-13
1.4106116e-13
4.011763e-05
1.135453e-05
1.076206e-05
9.8179516e-06
5.4874112e-06
3.1287727e-06
3.8410759e-06
4.9028055e-06
5.0937228e-06
4.6530346e-06
4.3352345e-06
2.5027619e-06
1.2665664e-06
8.4632279e-07
5.6249985e-07
3.6815334e-07
2.2770201e-07
1.2282484e-07
5.2234086e-08
1.9175257e-08
6.2444459e-09
1.8411347e-09
4.9437434e-10
1.1953604e-10
2.5278142e-11
4.4735003e-12
6.7137071e-13
1.6110144e-13
1.3186654e-13
1.4087707e-13
4.0102997e-05
1.1363833e-05
1.0770217e-05
9.8312802e-06
5.4984692e-06
3.13224e-06
3.8323433e-06
4.8922665e-06
5.0839164e-06
4.6445475e-06
4.3291036e-06
2.4976199e-06
1.2655274e-06
8.4597243e-07
5.6225808e-07
3.6799398e-07
2.2758324e-07
1.2271041e-07
5.2174126e-08
1.9150299e-08
6.2357606e-09
1.8384998e-09
4.9366152e-10
1.1936415e-10
2.5242051e-11
4.4671751e-12
6.7043955e-13
1.6088848e-13
1.3169498e-13
1.4069306e-13
4.0087987e-05
1.1373143e-05
1.0778386e-05
9.8446322e-06
5.5095585e-06
3.1357476e-06
3.8236263e-06
4.8817165e-06
5.0740967e-06
4.6360448e-06
4.3229633e-06
2.4924783e-06
1.2644987e-06
8.4562766e-07
5.6202069e-07
3.6783748e-07
2.2746632e-07
1.2259708e-07
5.2114695e-08
1.9125556e-08
6.2271509e-09
1.8358883e-09
4.929552e-10
1.1919388e-10
2.5206306e-11
4.460911e-12
6.695168e-13
1.6067669e-13
1.3152405e-13
1.4050972e-13
4.00726e-05
1.1382466e-05
1.0786568e-05
9.8580016e-06
5.5206759e-06
3.1392956e-06
3.8149261e-06
4.8711544e-06
5.064264e-06
4.627529e-06
4.3168144e-06
2.4873366e-06
1.2634804e-06
8.4528818e-07
5.6178736e-07
3.6768351e-07
2.2735093e-07
1.2248466e-07
5.2055657e-08
1.9100957e-08
6.2185868e-09
1.8332898e-09
4.922522e-10
1.1902436e-10
2.5170715e-11
4.4546726e-12
6.6859713e-13
1.6046497e-13
1.3135292e-13
1.4032617e-13
4.0056834e-05
1.1391796e-05
1.0794761e-05
9.8713798e-06
5.531821e-06
3.1428828e-06
3.8062437e-06
4.8605828e-06
5.0544178e-06
4.6189986e-06
4.3106576e-06
2.4821964e-06
1.2624727e-06
8.4495419e-07
5.6155837e-07
3.6753243e-07
2.2723746e-07
1.2237345e-07
5.1997219e-08
1.9076609e-08
6.2101128e-09
1.8307196e-09
4.9155714e-10
1.1885683e-10
2.5135551e-11
4.4485098e-12
6.676875e-13
1.6025426e-13
1.3118209e-13
1.4014293e-13
4.0040688e-05
1.1401131e-05
1.0802967e-05
9.8847676e-06
5.5429942e-06
3.1465092e-06
3.797578e-06
4.8499992e-06
5.0445576e-06
4.6104546e-06
4.3044926e-06
2.4770574e-06
1.2614756e-06
8.4462576e-07
5.613336e-07
3.6738401e-07
2.2712559e-07
1.2226316e-07
5.1939186e-08
1.9052412e-08
6.2016876e-09
1.8281636e-09
4.9086579e-10
1.1869017e-10
2.5100565e-11
4.4423771e-12
6.667817e-13
1.6004386e-13
1.3101127e-13
1.3995969e-13
4.0024164e-05
1.1410477e-05
1.0811185e-05
9.8981639e-06
5.5541925e-06
3.150175e-06
3.7889303e-06
4.839405e-06
5.034685e-06
4.6018967e-06
4.2983186e-06
2.4719199e-06
1.2604892e-06
8.4430311e-07
5.6111324e-07
3.6723845e-07
2.2701556e-07
1.2215395e-07
5.1881666e-08
1.9028423e-08
6.1933352e-09
1.82563e-09
4.9018065e-10
1.1852504e-10
2.5065908e-11
4.4363026e-12
6.6588387e-13
1.5983458e-13
1.3084107e-13
1.3977712e-13
4.0007259e-05
1.141984e-05
1.0819417e-05
9.9115757e-06
5.5654214e-06
3.1538808e-06
3.7803007e-06
4.8288001e-06
5.0247994e-06
4.5933254e-06
4.2921377e-06
2.466784e-06
1.2595133e-06
8.4398586e-07
5.6089697e-07
3.6709544e-07
2.2690708e-07
1.2204565e-07
5.1824546e-08
1.900458e-08
6.1850294e-09
1.8231096e-09
4.8949893e-10
1.183607e-10
2.5031411e-11
4.4302549e-12
6.6498937e-13
1.5962549e-13
1.306708e-13
1.3959447e-13
3.9989975e-05
1.1429218e-05
1.0827661e-05
9.9250031e-06
5.576678e-06
3.1576263e-06
3.7716898e-06
4.8181841e-06
5.0149007e-06
4.5847423e-06
4.2859508e-06
2.4616507e-06
1.2585484e-06
8.4367422e-07
5.6068505e-07
3.6695535e-07
2.2680054e-07
1.2193859e-07
5.1768039e-08
1.8980994e-08
6.1768155e-09
1.8206182e-09
4.8882529e-10
1.1819838e-10
2.4997347e-11
4.4242838e-12
6.6410505e-13
1.5941741e-13
1.305008e-13
1.394121e-13
3.9972311e-05
1.1438606e-05
1.0835916e-05
9.9384464e-06
5.5879633e-06
3.1614115e-06
3.7630982e-06
4.8075598e-06
5.0049906e-06
4.5761446e-06
4.279755e-06
2.4565195e-06
1.257594e-06
8.4336835e-07
5.6047738e-07
3.6681789e-07
2.2669557e-07
1.2183242e-07
5.1711922e-08
1.8957553e-08
6.1686484e-09
1.8181403e-09
4.8815519e-10
1.1803688e-10
2.4963454e-11
4.4183417e-12
6.6322433e-13
1.5920955e-13
1.3033074e-13
1.3922967e-13
3.9954268e-05
1.1447993e-05
1.0844175e-05
9.9519099e-06
5.5992806e-06
3.1652368e-06
3.7545241e-06
4.7969235e-06
4.995067e-06
4.5675338e-06
4.2735515e-06
2.4513905e-06
1.2566504e-06
8.4306839e-07
5.6027412e-07
3.6668329e-07
2.2659242e-07
1.2172731e-07
5.1656305e-08
1.8934313e-08
6.1605519e-09
1.8156842e-09
4.8749111e-10
1.1787688e-10
2.492988e-11
4.4124559e-12
6.6235139e-13
1.5900282e-13
1.3016132e-13
1.3904792e-13
3.9935845e-05
1.1457373e-05
1.0852425e-05
9.9653865e-06
5.6106264e-06
3.169102e-06
3.745969e-06
4.786277e-06
4.9851303e-06
4.5589105e-06
4.2673417e-06
2.4462646e-06
1.2557176e-06
8.4277393e-07
5.6007495e-07
3.6655123e-07
2.2649083e-07
1.2162311e-07
5.1601086e-08
1.891122e-08
6.152502e-09
1.8132413e-09
4.8683047e-10
1.1771767e-10
2.4896468e-11
4.4065974e-12
6.6148185e-13
1.5879632e-13
1.2999187e-13
1.3886613e-13
3.9917044e-05
1.1466756e-05
1.0860667e-05
9.9788714e-06
5.6220022e-06
3.1730069e-06
3.7374332e-06
4.7756214e-06
4.9751826e-06
4.5502754e-06
4.2611254e-06
2.4411418e-06
1.2547957e-06
8.4248518e-07
5.5988014e-07
3.6642208e-07
2.2639114e-07
1.2152011e-07
5.1546456e-08
1.8888372e-08
6.1445396e-09
1.8108259e-09
4.8617751e-10
1.1756036e-10
2.4863466e-11
4.4008113e-12
6.6062187e-13
1.585907e-13
1.298226e-13
1.3868454e-13
3.9897865e-05
1.1476146e-05
1.0868911e-05
9.9923584e-06
5.6334056e-06
3.1769516e-06
3.7289166e-06
4.764956e-06
4.965223e-06
4.5416277e-06
4.2549016e-06
2.4360221e-06
1.2538846e-06
8.4220213e-07
5.5968951e-07
3.6629553e-07
2.2629302e-07
1.2141799e-07
5.1492209e-08
1.8865665e-08
6.1366224e-09
1.8084235e-09
4.8552793e-10
1.1740385e-10
2.4830627e-11
4.3950527e-12
6.5976538e-13
1.5838537e-13
1.2965336e-13
1.3850297e-13
3.9878309e-05
1.1485538e-05
1.087716e-05
1.0005859e-05
5.6448382e-06
3.1809364e-06
3.7204198e-06
4.7542807e-06
4.9552506e-06
4.5329668e-06
4.2486717e-06
2.4309058e-06
1.2529842e-06
8.4192472e-07
5.5950323e-07
3.6617182e-07
2.2619674e-07
1.2131695e-07
5.1438473e-08
1.8843164e-08
6.1287772e-09
1.8060434e-09
4.848845e-10
1.1724886e-10
2.4798113e-11
4.3893518e-12
6.589169e-13
1.5818127e-13
1.2948486e-13
1.383222e-13
3.9858376e-05
1.1494945e-05
1.0885417e-05
1.0019373e-05
5.6563021e-06
3.1849615e-06
3.7119438e-06
4.7435953e-06
4.9452667e-06
4.5242952e-06
4.2424363e-06
2.4257932e-06
1.2520944e-06
8.4165228e-07
5.5932092e-07
3.6605059e-07
2.2610197e-07
1.212168e-07
5.1385131e-08
1.8820807e-08
6.1209784e-09
1.8036764e-09
4.842445e-10
1.1709467e-10
2.4765762e-11
4.3836781e-12
6.5807175e-13
1.5797728e-13
1.2931619e-13
1.3814124e-13
3.9838069e-05
1.1504389e-05
1.0893682e-05
1.0032875e-05
5.6677928e-06
3.1890271e-06
3.7034907e-06
4.7329022e-06
4.9352726e-06
4.5156117e-06
4.2361944e-06
2.4206844e-06
1.2512155e-06
8.4138567e-07
5.5914285e-07
3.6593219e-07
2.2600906e-07
1.2111783e-07
5.1332367e-08
1.8798693e-08
6.113266e-09
1.8013367e-09
4.8361211e-10
1.1694237e-10
2.4733818e-11
4.3780765e-12
6.5723606e-13
1.5777413e-13
1.2914766e-13
1.3796042e-13
3.9817388e-05
1.1513866e-05
1.0901966e-05
1.0046372e-05
5.6793125e-06
3.1931325e-06
3.6950578e-06
4.7221987e-06
4.9252653e-06
4.5069159e-06
4.2299464e-06
2.4155793e-06
1.250347e-06
8.4112483e-07
5.5896884e-07
3.6581632e-07
2.259177e-07
1.2101973e-07
5.1279977e-08
1.8776716e-08
6.1055977e-09
1.7990096e-09
4.8298302e-10
1.1679085e-10
2.4702034e-11
4.3725018e-12
6.5640384e-13
1.5757131e-13
1.2897921e-13
1.3777968e-13
3.9796335e-05
1.1523366e-05
1.0910273e-05
1.0059879e-05
5.6908614e-06
3.1972776e-06
3.6866452e-06
4.7114856e-06
4.9152464e-06
4.4982081e-06
4.2236924e-06
2.4104785e-06
1.2494893e-06
8.4086989e-07
5.5879906e-07
3.6570321e-07
2.2582812e-07
1.2092268e-07
5.1228093e-08
1.8754944e-08
6.0980012e-09
1.7967048e-09
4.8236011e-10
1.1664085e-10
2.4670578e-11
4.3669853e-12
6.5557971e-13
1.5736971e-13
1.2881148e-13
1.3759972e-13
3.9774912e-05
1.1532893e-05
1.0918598e-05
1.0073394e-05
5.7024396e-06
3.201463e-06
3.6782542e-06
4.7007642e-06
4.9052175e-06
4.4894894e-06
4.2174321e-06
2.4053818e-06
1.2486421e-06
8.4062041e-07
5.5863312e-07
3.6559247e-07
2.2573997e-07
1.2082647e-07
5.1176572e-08
1.8733303e-08
6.0904464e-09
1.7944117e-09
4.8174021e-10
1.1649155e-10
2.4639261e-11
4.3614922e-12
6.5475835e-13
1.5716815e-13
1.2864355e-13
1.3741953e-13
3.9753119e-05
1.154244e-05
1.0926936e-05
1.008692e-05
5.7140492e-06
3.2056893e-06
3.6698842e-06
4.6900333e-06
4.8951764e-06
4.4807598e-06
4.211167e-06
2.4002897e-06
1.2478055e-06
8.4037649e-07
5.5847126e-07
3.6548445e-07
2.2565363e-07
1.207314e-07
5.1125618e-08
1.8711901e-08
6.082977e-09
1.7921455e-09
4.8112786e-10
1.1634413e-10
2.4608352e-11
4.3560711e-12
6.5394661e-13