/*--------------------------------*- C++ -*----------------------------------*\
| =========                 |                                                 |
| \\      /  F ield         | OpenFOAM: The Open Source CFD Toolbox           |
|  \\    /   O peration     | Version:  v2012                                 |
|   \\  /    A nd           | Website:  www.openfoam.com                      |
|    \\/     M anipulation  |                                                 |
\*---------------------------------------------------------------------------*/
FoamFile
{
    version     2.0;
    format      ascii;
    class       volScalarField;
    location    "350";
    object      omega;
}
// * * * * * * * * * * * * * * * * * * * * * * * * * * * * * * * * * * * * * //

dimensions      [0 0 -1 0 0 0 0];


internalField   nonuniform List<scalar> 
24000
(
2340.265
3123.2364
3173.7794
4347.4811
11806.413
37879.473
99917.358
163993.69
210878.26
232147.19
222437.49
250046.59
459779.04
894638.84
1368779.4
1827950.3
2312523.2
2928946.5
3860776.3
5401167.2
8026753.9
12565298
20572584
35218683
63575314
1.2334297e+08
2.6640777e+08
6.8410017e+08
2.3841309e+09
1.6107287e+10
2340.4948
3122.9706
3173.805
4349.6308
11801.729
37730.392
99423.504
163427.96
210363.78
231784.54
222003.25
248436.16
455693.77
887899.38
1361791.3
1820001.6
2302837.6
2916892
3846418.8
5385180.3
8009473.8
12545627
20547111
35180398
63510052
1.2321856e+08
2.6613701e+08
6.8338096e+08
2.381431e+09
1.6093022e+10
2340.8024
3122.5371
3173.2834
4349.0055
11780.788
37597.223
99133.764
163182.24
210197.56
231691.08
221905.53
247989.14
454260.48
885063.19
1358754.4
1816876.8
2299606.6
2913114.9
3841105.1
5377085.5
7997577.5
12529248
20525361
35151004
63467200
1.2314801e+08
2.6600181e+08
6.8306884e+08
2.3804964e+09
1.6084375e+10
2341.1064
3122.1805
3172.969
4348.0076
11761.587
37485.015
98877.279
162932.76
209981.37
231503.52
221772.72
247813.46
453807.42
883988.84
1357336.8
1815438.9
2298362.6
2912272.1
3841024.1
5378169.4
8000044.9
12533008
20530113
35156448
63473254
1.2315497e+08
2.6601027e+08
6.8307713e+08
2.3804658e+09
1.608511e+10
2341.4088
3121.8738
3172.7272
4346.7792
11742.687
37378.465
98627.002
162681.46
209746.84
231292.17
221615.95
247722.97
453623.73
883309.39
1356130.2
1813905.9
2296667.1
2910419.7
3838874.1
5375523.6
7996687.6
12528679
20524353
35148284
63460520
1.2313258e+08
2.659648e+08
6.8296536e+08
2.380094e+09
1.6082375e+10
2341.7119
3121.6328
3172.5757
4345.5472
11724.421
37275.704
98380.561
162428.84
209509.69
231078.65
221448.5
247645.54
453589.49
883005.04
1355296.6
1812764.4
2295381.8
2909113
3837634
5374382.2
7995587.6
12527443
20522642
35145491
63455467
1.2312265e+08
2.6594312e+08
6.8290899e+08
2.3798935e+09
1.6081108e+10
2342.019
3121.445
3172.4852
4344.35
11706.543
37174.778
98135.374
162174.34
209275.27
230862.79
221274.47
247578.38
453637.04
882884.01
1354613.3
1811721.9
2294132
2907770.9
3836270.6
5373004.5
7994121
12525710
20520313
35141948
63449464
1.2311138e+08
2.6591915e+08
6.8284794e+08
2.3796816e+09
1.6079689e+10
2342.3326
3121.2997
3172.4376
4343.1915
11688.943
37074.991
97890.972
161919.32
209042.58
230646
221097.24
247516.52
453730.81
882867.32
1354021.1
1810751.4
2292936.3
2906475.4
3834965.2
5371719.1
7992802.5
12524201
20518312
35138896
63444248
1.2310149e+08
2.6589802e+08
6.8279388e+08
2.3794928e+09
1.6078443e+10
2342.6547
3121.1877
3172.4199
4342.0662
11671.545
36975.956
97647.016
161663.91
208810.56
230428.46
220918.32
247458.04
453851.33
882907.37
1353478.3
1809818.6
2291765.7
2905194.1
3833667.3
5370438.7
7991491.4
12522709
20516347
35135915
63439171
1.230919e+08
2.6587752e+08
6.8274144e+08
2.3793098e+09
1.6077233e+10
2342.9867
3121.1025
3172.4241
4340.9692
11654.299
36877.474
97403.324
161408.12
208578.75
230210.38
220738.65
247401.71
453988.01
882979.12
1352963.8
1808907.6
2290609.3
2903921.2
3832375.1
5369165.4
7990191.9
12521236
20514412
35132984
63434178
1.2308245e+08
2.6585735e+08
6.8268987e+08
2.3791298e+09
1.6076044e+10
2343.3296
3121.0399
3172.4456
4339.8969
11637.176
36779.42
97159.775
161151.93
208346.84
229991.8
220558.35
247346.8
454134.82
883068.07
1352465.4
1808008.6
2289460.3
2902651.9
3831084.5
5367893.2
7988894.6
12519767
20512484
35130062
63429201
1.2307304e+08
2.6583723e+08
6.8263841e+08
2.3789503e+09
1.6074857e+10
2343.6844
3120.9973
3172.482
4338.8466
11620.156
36681.723
96916.306
160895.34
208114.72
229772.79
220377.42
247292.84
454288.26
883165.8
1351975.8
1807116.2
2288314.7
2901383
3829792.2
5366617.9
7987592.7
12518291
20510545
35127123
63424191
1.2306356e+08
2.6581699e+08
6.8258665e+08
2.3787697e+09
1.6073663e+10
2344.0516
3120.9734
3172.5317
4337.8165
11603.225
36584.344
96672.881
160638.34
207882.29
229553.34
220196.02
247239.59
454446.24
883267.36
1351491
1806227.4
2287170.9
2900114.3
3828498.7
5365340.5
7986287.7
12516810
20508596
35124164
63419145
1.2305401e+08
2.6579657e+08
6.8253445e+08
2.3785876e+09
1.6072459e+10
2344.4318
3120.9673
3172.5942
4336.8054
11586.374
36487.247
96429.468
160380.92
207649.51
229333.5
220014.21
247186.9
454607.48
883369.59
1351008.3
1805339.8
2286026.7
2898843.5
3827201.2
5364056.6
7984972.7
12515314
20506623
35121166
63414030
1.2304433e+08
2.6577589e+08
6.8248158e+08
2.3784032e+09
1.607124e+10
2344.8254
3120.9788
3172.6689
4335.8124
11569.596
36390.411
96186.054
160123.1
207416.36
229113.27
219832.05
247134.66
454771.22
883470.72
1350526.3
1804452.7
2284882.3
2897571.4
3825901.5
5362769.1
7983652
12513808
20504634
35118139
63408860
1.2303454e+08
2.6575498e+08
6.8242811e+08
2.3782168e+09
1.6070006e+10
2345.2329
3121.0079
3172.756
4334.8367
11552.886
36293.827
95942.634
159864.88
207182.83
228892.66
219649.57
247082.82
454936.98
883569.52
1350044
1803565.4
2283736.9
2896297.3
3824598.2
5361476.1
7982322.5
12512288
20502621
35115073
63403623
1.2302463e+08
2.657338e+08
6.8237397e+08
2.3780281e+09
1.6068756e+10
2345.6547
3121.0547
3172.8553
4333.8778
11536.24
36197.479
95699.196
159606.24
206948.91
228671.69
219466.77
247031.34
455104.45
883665.26
1349561.1
1802677.9
2282591
2895022.3
3823293.5
5360180.5
7980988.6
12510760
20500595
35111981
63398335
1.2301461e+08
2.6571238e+08
6.8231925e+08
2.3778374e+09
1.6067493e+10
2346.0913
3121.1195
3172.9671
4332.9354
11519.655
36101.356
95455.737
159347.21
206714.61
228450.36
219283.66
246980.18
455273.35
883757.16
1349076.7
1801789.2
2281443.5
2893744.8
3821984.7
5358878.5
7979644.4
12509216
20498542
35108846
63392974
1.2300445e+08
2.6569069e+08
6.8226382e+08
2.3776443e+09
1.6066213e+10
2346.5429
3121.2025
3173.0914
4332.009
11503.127
36005.458
95212.253
159087.77
206479.92
228228.66
219100.26
246929.32
455443.55
883844.98
1348591
1800899.7
2280295.1
2892466.2
3820674.3
5357573.6
7978295.3
12507664
20496475
35105684
63387562
1.229942e+08
2.6566878e+08
6.8220784e+08
2.3774493e+09
1.6064919e+10
2347.0099
3121.3041
3173.2285
4331.0985
11486.654
35909.772
94968.731
158827.93
206244.85
228006.61
218916.55
246878.75
455614.93
883928.35
1348103.6
1800009.1
2279145.5
2891185.8
3819360.9
5356263.9
7976938.4
12506098
20494386
35102487
63382088
1.2298383e+08
2.6564663e+08
6.8215123e+08
2.3772521e+09
1.6063611e+10
2347.4926
3121.4246
3173.3786
4330.2036
11470.235
35814.292
94725.17
158567.69
206009.4
227784.21
218732.55
246828.45
455787.39
884007.09
1347614.6
1799117.7
2277995.3
2889904.7
3818046.5
5354952.3
7975577.9
12504526
20492285
35099266
63376568
1.2297337e+08
2.6562427e+08
6.8209411e+08
2.3770532e+09
1.6062291e+10
2347.9916
3121.5645
3173.5419
4329.3242
11453.866
35719.021
94481.566
158307.04
205773.57
227561.46
218548.26
246778.41
455960.83
884080.81
1347123.5
1798225
2276843.6
2888621.4
3816728.6
5353635
7974207.9
12502939
20490160
35096005
63370981
1.2296278e+08
2.6560165e+08
6.8203633e+08
2.3768521e+09
1.6060956e+10
2348.5069
3121.7242
3173.7188
4328.4602
11437.548
35623.945
94237.907
158045.98
205537.36
227338.35
218363.67
246728.61
456135.15
884149.42
1346630.4
1797331.2
2275691
2887337.3
3815409.4
5352315.4
7972833.9
12501344
20488022
35092721
63365348
1.229521e+08
2.6557883e+08
6.8197805e+08
2.3766492e+09
1.6059608e+10
2349.0391
3121.904
3173.9093
4327.6112
11421.278
35529.068
93994.2
157784.51
205300.77
227114.9
218178.79
246679.05
456310.33
884212.76
1346135.3
1796436.3
2274537.4
2886051.6
3814087.6
5350991.4
7971452.5
12499738
20485863
35089403
63359657
1.2294131e+08
2.6555578e+08
6.8191919e+08
2.3764444e+09
1.6058247e+10
2349.5884
3122.1044
3174.1137
4326.7771
11405.054
35434.391
93750.443
157522.64
205063.81
226891.09
217993.62
246629.73
456486.34
884270.81
1345638.3
1795540.5
2273383.3
2884765.6
3812765.3
5349666
7970068.2
12498125
20483694
35086064
63353924
1.2293043e+08
2.6553255e+08
6.8185985e+08
2.376238e+09
1.6056874e+10
2350.1551
3122.3258
3174.3324
4325.9581
11388.877
35339.901
93506.633
157260.34
204826.46
226666.93
217808.15
246580.62
456663.03
884323.16
1345138.8
1794643.2
2272227.8
2883477.6
3811439.7
5348335.1
7968674.8
12496498
20481501
35082686
63348127
1.2291944e+08
2.6550907e+08
6.817999e+08
2.3760294e+09
1.6055486e+10
2350.7397
3122.5686
3174.5654
4325.1538
11372.744
35245.607
93262.772
156997.63
204588.74
226442.43
217622.4
246531.72
456840.43
884369.96
1344637.2
1793745
2271071.7
2882189.2
3810113.4
5347002.7
7967278.2
12494865
20479297
35079288
63342289
1.2290837e+08
2.6548541e+08
6.8173949e+08
2.3758193e+09
1.6054088e+10
2351.3422
3122.8332
3174.8131
4324.3642
11356.656
35151.504
93018.857
156734.5
204350.64
226217.57
217436.34
246483.03
457018.47
884410.98
1344133.3
1792845.5
2269914.5
2880899.3
3808784.6
5345666.1
7965874.6
12493220
20477073
35075857
63336394
1.2289719e+08
2.6546153e+08
6.8167853e+08
2.3756073e+09
1.6052677e+10
2351.9632
3123.12
3175.0757
4323.5892
11340.612
35057.589
92774.885
156470.94
204112.15
225992.36
217249.99
246434.54
457197.1
884446.21
1343627.1
1791945
2268756.9
2879609.2
3807455.5
5344328.4
7964468.4
12491570
20474840
35072407
63330462
1.2288593e+08
2.6543748e+08
6.8161712e+08
2.3753937e+09
1.6051254e+10
2352.6029
3123.4293
3175.3532
4322.8285
11324.61
34963.869
92530.853
156206.96
203873.29
225766.8
217063.34
246386.25
457376.27
884475.47
1343118.4
1791043.1
2267598
2878317.4
3806123.6
5342985.7
7963053.7
12489906
20472584
35068920
63324467
1.2287456e+08
2.6541319e+08
6.8155512e+08
2.3751782e+09
1.6049818e+10
2353.2615
3123.7616
3175.6459
4322.0824
11308.651
34870.333
92286.753
155942.54
203634.04
225540.88
216876.39
246338.14
457555.95
884498.73
1342607.2
1790139.9
2266438.5
2877025.3
3804791.1
5341641.8
7961636.3
12488237
20470317
35065413
63318434
1.2286311e+08
2.6538872e+08
6.8149268e+08
2.3749611e+09
1.6048371e+10
2353.9394
3124.1171
3175.9541
4321.3506
11292.734
34776.987
92042.582
155677.69
203394.4
225314.61
216689.14
246290.21
457736.08
884515.87
1342093.5
1789235.4
2265277.7
2875731.6
3803456.2
5340293.7
7960211.7
12486555
20468031
35061874
63312344
1.2285155e+08
2.6536404e+08
6.8142968e+08
2.3747422e+09
1.6046911e+10
2354.6369
3124.4963
3176.2778
4320.6329
11276.857
34683.831
91798.339
155412.39
203154.38
225087.98
216501.59
246242.45
457916.65
884526.97
1341577.3
1788329.8
2264116.6
2874437.9
3802121.1
5338944.7
7958785
12484869
20465736
35058316
63306217
1.2283992e+08
2.6533919e+08
6.8136625e+08
2.3745217e+09
1.6045441e+10
2355.3541
3124.8994
3176.6173
4319.9295
11261.022
34590.859
91554.025
155146.66
202913.97
224860.99
216313.74
246194.87
458097.57
884531.74
1341058.2
1787422.4
2262954
2873142.2
3800783
5337590.5
7957349.2
12483168
20463417
35054720
63300025
1.2282817e+08
2.6531409e+08
6.8130221e+08
2.3742992e+09
1.6043956e+10
2356.0914
3125.3267
3176.9728
4319.2399
11245.226
34498.082
91309.644
154880.48
202673.17
224633.65
216125.59
246147.45
458278.88
884530.39
1340536.6
1786513.8
2261790.7
2871846.2
3799444.3
5336235
7955910.8
12481462
20461087
35051104
63293795
1.2281634e+08
2.6528882e+08
6.8123773e+08
2.3740752e+09
1.6042461e+10
2356.849
3125.7788
3177.3444
4318.5642
11229.47
34405.492
91065.195
154613.85
202431.98
224405.94
215937.14
246100.2
458460.51
884522.77
1340012.1
1785603.5
2260626
2870548.6
3798103.1
5334875.2
7954465
12479744
20458738
35047455
63287508
1.2280441e+08
2.6526333e+08
6.8117269e+08
2.3738494e+09
1.6040952e+10
2357.6272
3126.2557
3177.7324
4317.9022
11213.753
34313.092
90820.684
154346.77
202190.4
224177.89
215748.39
246053.11
458642.5
884509.1
1339485.2
1784692.2
2259461
2869251
3796762
5333515
7953017.7
12478022
20456380
35043789
63281186
1.227924e+08
2.6523767e+08
6.8110723e+08
2.373622e+09
1.6039434e+10
2358.4262
3126.7578
3178.1368
4317.2536
11198.074
34220.884
90576.112
154079.24
201948.43
223949.47
215559.33
246006.18
458824.77
884489.13
1338955.4
1783779
2258294.2
2867951.3
3795417.5
5332149.1
7951560.9
12476284
20453998
35040083
63274796
1.2278027e+08
2.6521176e+08
6.8104115e+08
2.3733926e+09
1.60379e+10
2359.2461
3127.2855
3178.5578
4316.6185
11182.433
34128.863
90331.474
153811.26
201706.06
223720.69
215369.97
245959.4
459007.3
884463
1338422.8
1782864.4
2257126.7
2866651
3794072.4
5330782
7950101.5
12474542
20451606
35036358
63268369
1.2276806e+08
2.6518568e+08
6.8097462e+08
2.3731616e+09
1.6036356e+10
2360.0873
3127.8388
3178.9956
4315.9965
11166.829
34037.034
90086.769
153542.81
201463.31
223491.56
215180.3
245912.79
459190.12
884430.78
1337887.6
1781948.3
2255957.9
2865349.1
3792724.7
5329410.4
7948634.5
12472787
20449193
35032599
63261883
1.2275574e+08
2.6515938e+08
6.8090753e+08
2.3729287e+09
1.6034799e+10
2360.9499
3128.4182
3179.4502
4315.3875
11151.261
33945.392
89841.995
153273.91
201220.16
223262.07
214990.34
245866.33
459373.22
884392.61
1337349.9
1781031.1
2254788.7
2864047.2
3791376.9
5328038.1
7947165.8
12471027
20446772
35028822
63255362
1.2274335e+08
2.6513291e+08
6.8084001e+08
2.3726943e+09
1.6033231e+10
2361.834
3129.0238
3179.9218
4314.7913
11135.728
33853.938
89597.151
153004.54
200976.63
223032.22
214800.07
245820.02
459556.54
884348.3
1336809.2
1780112.1
2253617.7
2862743.1
3790025.5
5326659.8
7945686.7
12469252
20444325
35025004
63248770
1.2273084e+08
2.6510617e+08
6.8077184e+08
2.3724578e+09
1.6031648e+10
2362.7399
3129.656
3180.4105
4314.2076
11120.23
33762.674
89352.238
152734.71
200732.71
222802.02
214609.5
245773.86
459740.1
884298.12
1336266.1
1779191.9
2252446.2
2861438.7
3788673.7
5325280.6
7944205.7
12467472
20441869
35021168
63242144
1.2271824e+08
2.6507928e+08
6.8070324e+08
2.3722198e+09
1.6030055e+10
2363.6678
3130.3149
3180.9163
4313.6364
11104.765
33671.595
89107.257
152464.42
200488.4
222571.47
214418.63
245727.85
459923.88
884242.04
1335720.3
1778270.1
2251273.4
2860132.5
3787319.2
5323896.7
7942717
12465679
20439392
35017298
63235458
1.2270554e+08
2.6505215e+08
6.8063409e+08
2.3719799e+09
1.6028448e+10
2364.6177
3131.0008
3181.4393
4313.0772
11089.333
33580.706
88862.22
152193.66
200243.72
222340.57
214227.46
245681.98
460107.92
884180.28
1335172.1
1777347.5
2250100.3
2858826.5
3785964.9
5322512.5
7941226.7
12463883
20436907
35013412
63228739
1.2269277e+08
2.6502487e+08
6.8056451e+08
2.3717385e+09
1.6026831e+10
2365.5899
3131.7139
3181.9796
4312.5298
11073.932
33490.002
88617.13
151922.43
199998.63
222109.31
214035.99
245636.23
460292.11
884112.62
1334621
1776423
2248925.7
2857518.4
3784607
5321122.3
7939726.3
12462070
20434397
35009484
63221950
1.2267987e+08
2.6499732e+08
6.8049429e+08
2.3714949e+09
1.6025199e+10
2366.5844
3132.4545
3182.5373
4311.9938
11058.562
33399.485
88371.989
151650.73
199753.16
221877.71
213844.22
245590.56
460476.5
884039.35
1334067.5
1775497.4
2247750.5
2856210.1
3783249
5319731.4
7938224.2
12460253
20431878
35005538
63215126
1.226669e+08
2.6496961e+08
6.8042364e+08
2.3712499e+09
1.6023557e+10
2367.6015
3133.2226
3183.1122
4311.4688
11043.221
33309.153
88126.799
151378.56
199507.31
221645.76
213652.15
245544.9
460661.04
883960.4
1333511.3
1774570.3
2246574
2854900
3781888.1
5318335.7
7936714.1
12458423
20429338
35001558
63208242
1.2265382e+08
2.6494167e+08
6.8035242e+08
2.3710029e+09
1.6021901e+10
2368.6412
3134.0185
3183.7045
4310.9545
11027.908
33219.003
87881.559
151105.92
199261.07
221413.47
213459.78
245499.07
460845.74
883875.96
1332952.8
1773642.1
2245397.3
2853590.2
3780527.4
5316939.7
7935202.5
12456590
20426789
34997561
63201323
1.2264066e+08
2.6491357e+08
6.8028077e+08
2.3707545e+09
1.6020234e+10
2369.7037
3134.8424
3184.3142
4310.4505
11012.621
33129.034
87636.265
150832.8
199014.44
221180.83
213267.12
245453.24
461030.54
883785.9
1332391.4
1772712.2
2244218.9
2852278.3
3779163.3
5315537.7
7933680.7
12454740
20424215
34993521
63194333
1.2262738e+08
2.648852e+08
6.8020846e+08
2.3705038e+09
1.6018552e+10
2370.7891
3135.6944
3184.9412
4309.9565
10997.359
33039.244
87390.912
150559.2
198767.42
220947.86
213074.16
245407.45
461215.42
883690.42
1331827.4
1771781.1
2243040
2850966.1
3777798.9
5314134.9
7932157
12452886
20421631
34989464
63187307
1.2261402e+08
2.6485666e+08
6.8013573e+08
2.3702517e+09
1.601686e+10
2371.8974
3136.5746
3185.5855
4309.472
10982.122
32949.632
87145.501
150285.13
198520.01
220714.54
212880.91
245361.63
461400.4
883589.55
1331260.8
1770848.4
2241859.8
2849652.3
3776431.7
5312727.3
7930625.2
12451018
20419026
34985372
63180221
1.2260055e+08
2.648279e+08
6.8006242e+08
2.3699976e+09
1.6015155e+10
2373.0289
3137.4832
3186.247
4308.9967
10966.908
32860.198
86900.037
150010.58
198272.22
220480.89
212687.37
245315.78
461585.5
883483.56
1330691.8
1769914.7
2240679.4
2848338.7
3775064.9
5311319.7
7929092.3
12449147
20416414
34981264
63173102
1.2258701e+08
2.6479897e+08
6.7998869e+08
2.369742e+09
1.6013439e+10
2374.1836
3138.4202
3186.9259
4308.5304
10951.717
32770.939
86654.527
149735.55
198024.04
220246.92
212493.55
245270
461770.65
883372.25
1330120
1768979.2
2239497.4
2847023
3773694.6
5309906
7927549.3
12447260
20413775
34977113
63165912
1.2257334e+08
2.6476978e+08
6.7991431e+08
2.3694843e+09
1.6011708e+10
2375.3615
3139.3858
3187.6219
4308.0727
10936.546
32681.857
86408.978
149460.04
197775.48
220012.61
212299.45
245224.24
461955.87
883255.9
1329545.7
1768042.4
2238314.8
2845707.1
3772324.1
5308491.6
7926004.3
12445369
20411128
34972945
63158686
1.225596e+08
2.6474042e+08
6.798395e+08
2.3692251e+09
1.6009966e+10
2376.5628
3140.3801
3188.3352
4307.6232
10921.395
32592.95
86163.396
149184.05
197526.53
219777.98
212105.07
245178.52
462141.13
883134.52
1328968.8
1767104.1
2237130.9
2844389.6
3770950.9
5307072.6
7924451.6
12443464
20408460
34968743
63151401
1.2254574e+08
2.6471084e+08
6.7976412e+08
2.368964e+09
1.6008211e+10
2377.7876
3141.4032
3189.0657
4307.1817
10906.263
32504.216
85917.784
148907.58
197277.2
219543.03
211910.41
245132.85
462326.5
883008.38
1328389.6
1766164.8
2235946.7
2843072.2
3769577.8
5305653.2
7922897.4
12441556
20405783
34964522
63144080
1.2253181e+08
2.6468109e+08
6.796883e+08
2.3687013e+09
1.6006446e+10
2379.0359
3142.4552
3189.8132
4306.7477
10891.148
32415.656
85672.143
148630.63
197027.48
219307.76
211715.48
245087.26
462511.86
882877.24
1327807.6
1765223.5
2234760.8
2841752.6
3768201.2
5304227.6
7921332.7
12439631
20403080
34960260
63136687
1.2251775e+08
2.6465107e+08
6.7961183e+08
2.3684365e+09
1.6004665e+10
2380.3078
3143.5361
3190.5779
4306.3209
10876.051
32327.265
85426.466
148353.2
196777.39
219072.19
211520.3
245041.74
462697.29
882741.49
1327223.2
1764281.1
2233574.4
2840432.9
3766824.4
5302801.4
7919766.1
12437702
20400368
34955979
63129260
1.2250362e+08
2.6462088e+08
6.7953492e+08
2.3681701e+09
1.6002874e+10
2381.6034
3144.646
3191.3596
4305.9009
10860.969
32239.044
85180.751
148075.29
196526.92
218836.32
211324.85
244996.3
462882.8
882601.17
1326636.4
1763337.1
2232386.7
2839111.5
3765445
5301370.8
7918192
12435760
20397635
34951665
63121773
1.2248938e+08
2.6459047e+08
6.7945745e+08
2.3679019e+09
1.6001069e+10
2382.9226
3145.7851
3192.1582
4305.4874
10845.903
32150.991
84934.997
147796.9
196276.07
218600.13
211129.16
244950.96
463068.37
882456.41
1326047.3
1762392.1
2231198.7
2837790.2
3764065.6
5299939.5
7916616.1
12433814
20394894
34947333
63114250
1.2247506e+08
2.6455989e+08
6.7937954e+08
2.3676321e+09
1.5999254e+10
2384.2656
3146.9533
3192.9737
4305.0801
10830.849
32063.104
84689.202
147518.02
196024.84
218363.66
210933.21
244905.72
463253.93
882307.01
1325455.5
1761445.3
2230008.9
2836466.8
3762682.9
5298502.5
7915030.4
12431853
20392127
34942960
63106658
1.2246062e+08
2.6452904e+08
6.7930099e+08
2.3673601e+09
1.5997423e+10
2385.6325
3148.1507
3193.8061
4304.6786
10815.809
31975.384
84443.378
147238.67
195773.24
218126.89
210737.03
244860.6
463439.56
882153.1
1324861.5
1760497.3
2228818.6
2835143.1
3761299.9
5297064.7
7913442.8
12429887
20389352
34938568
63099030
1.224461e+08
2.6449804e+08
6.79222e+08
2.3670867e+09
1.5995582e+10
2387.0232
3149.3773
3194.6552
4304.2826
10800.781
31887.829
84197.533
146958.83
195521.27
217889.85
210540.61
244815.59
463625.25
881994.09
1324265
1759547.8
2227627
2833817.6
3759913.9
5295622.1
7911847.2
12427908
20386555
34934142
63091342
1.2243147e+08
2.644668e+08
6.7914244e+08
2.3668112e+09
1.5993728e+10
2388.4378
3150.6333
3195.521
4303.8916
10785.763
31800.439
83951.677
146678.51
195268.93
217652.52
210343.96
244770.73
463811.06
881829.6
1323666.3
1758597.3
2226435.1
2832492.2
3758528
5294178.7
7910249.5
12425924
20383749
34929698
63083616
1.2241676e+08
2.6443538e+08
6.7906242e+08
2.3665342e+09
1.5991862e+10
2389.8763
3151.9186
3196.4033
4303.5053
10770.755
31713.212
83705.814
146397.7
195016.22
217414.92
210147.1
244725.99
463996.88
881661.41
1323065.2
1757645.2
2225241.6
2831164.8
3757138.7
5292729.6
7908641.9
12423924
20380917
34925211
63075821
1.2240193e+08
2.6440371e+08
6.7898175e+08
2.3662551e+09
1.5989981e+10
2391.3388
3153.2332
3197.3022
4303.1234
10755.756
31626.147
83459.943
146116.42
194763.15
217177.06
209950.02
244681.4
464182.77
881489.78
1322462.1
1756692.1
2224047.7
2829837.1
3755749.1
5291279.7
7907032.5
12421920
20378077
34920708
63067990
1.2238702e+08
2.6437187e+08
6.7890066e+08
2.3659744e+09
1.598809e+10
2392.8253
3154.5773
3198.2176
4302.7455
10740.765
31539.242
83214.057
145834.65
194509.72
216938.94
209752.74
244636.96
464368.66
881314.58
1321856.8
1755737.4
2222852.4
2828507.6
3754356.5
5289824.7
7905414.7
12419903
20375215
34916168
63060098
1.22372e+08
2.6433979e+08
6.7881898e+08
2.3656918e+09
1.5986185e+10
2394.3358
3155.9508
3199.1493
4302.3712
10725.78
31452.494
82968.147
145552.4
194255.92
216700.57
209555.26
244592.69
464554.64
881136
1321249.8
1754782.1
2221657.1
2827178.4
3752964.1
5288369.4
7903795.5
12417882
20372344
34911612
63052171
1.2235691e+08
2.6430755e+08
6.7873687e+08
2.3654076e+09
1.598427e+10
2395.8703
3157.3538
3200.0972
4302.0001
10710.801
31365.901
82722.211
145269.67
194001.76
216461.95
209357.6
244548.57
464740.6
880953.6
1320640.4
1753825.2
2220460.2
2825847.2
3751568.2
5286908
7902166
12415844
20369447
34907013
63044173
1.2234168e+08
2.6427504e+08
6.786541e+08
2.3651213e+09
1.5982339e+10
2397.4289
3158.7862
3201.0612
4301.6316
10695.826
31279.462
82476.249
144986.46
193747.25
216223.08
209159.75
244504.63
464926.61
880767.43
1320029
1752867.4
2219263
2824515.8
3750172.2
5285445.9
7900534.7
12413802
20366542
34902397
63036140
1.2232638e+08
2.6424237e+08
6.7857092e+08
2.3648335e+09
1.5980398e+10
2399.0115
3160.2481
3202.0412
4301.2655
10680.855
31193.174
82230.269
144702.76
193492.37
215983.99
208961.73
244460.86
465112.65
880577.81
1319415.6
1751908.3
2218064.6
2823182.9
3748773.5
5283979.2
7898895.4
12411747
20363616
34897747
63028047
1.2231098e+08
2.6420947e+08
6.7848716e+08
2.3645438e+09
1.5978444e+10
2400.6181
3161.7393
3203.0371
4300.9013
10665.885
31107.038
81984.285
144418.57
193237.14
215744.67
208763.54
244417.27
465298.76
880385.53
1318800.6
1750948.5
2216866.3
2821850.4
3747375.3
5282512.5
7897255.2
12409689
20360682
34893080
63019921
1.222955e+08
2.6417641e+08
6.7840298e+08
2.3642527e+09
1.597648e+10
2402.2487
3163.2598
3204.0487
4300.5386
10650.916
31021.051
81738.305
144133.9
192981.55
215505.12
208565.19
244373.84
465484.83
880190.26
1318183.4
1749987.1
2215666.4
2820515.6
3745973.2
5281039.2
7895604
12407614
20357721
34888370
63011722
1.2227989e+08
2.6414308e+08
6.7831813e+08
2.3639592e+09
1.5974499e+10
2403.9034
3164.8095
3205.0758
4300.177
10635.947
30935.213
81492.335
143848.74
192725.6
215265.35
208366.69
244330.58
465670.91
879992.26
1317564.6
1749025
2214466.3
2819181
3744571.3
5279565.6
7893951.3
12405535
20354752
34883643
63003489
1.2226421e+08
2.6410959e+08
6.7823288e+08
2.3636644e+09
1.5972509e+10
2405.582
3166.3884
3206.1185
4299.8163
10620.976
30849.52
81246.367
143563.1
192469.29
215025.38
208168.04
244287.5
465857.02
879791.46
1316943.9
1748061.6
2213265.1
2817844.8
3743166.7
5278087.3
7892290.8
12403443
20351762
34878881
62995197
1.2224842e+08
2.6407587e+08
6.7814705e+08
2.3633676e+09
1.5970506e+10
2407.2845
3167.9963
3207.1764
4299.4559
10606.003
30763.97
81000.392
143276.97
192212.63
214785.2
207969.24
244244.57
466043.17
879587.9
1316321.7
1747097.7
2212064
2816509.1
3741762.6
5276609.1
7890629.4
12401348
20348765
34874105
62986873
1.2223256e+08
2.64042e+08
6.7806081e+08
2.3630694e+09
1.5968493e+10
2409.0108
3169.6331
3208.2495
4299.0955
10591.027
30678.561
80754.398
142990.35
191955.62
214544.81
207770.32
244201.8
466229.29
879381.38
1315697.4
1746132.2
2210861.3
2815171.3
3740354.8
5275124.5
7888957.3
12399236
20345741
34869285
62978476
1.2221657e+08
2.6400786e+08
6.7797391e+08
2.362769e+09
1.5966463e+10
2410.761
3171.2987
3209.3377
4298.7348
10576.046
30593.29
80508.383
142703.24
191698.25
214304.24
207571.27
244159.21
466415.44
879172.44
1315071.6
1745166
2209658.5
2813833.6
3738947.2
5273639.8
7887284
12397121
20342709
34864449
62970047
1.2220051e+08
2.6397356e+08
6.778866e+08
2.3624671e+09
1.5964424e+10
2412.5348
3172.993
3210.4407
4298.3734
10561.06
30508.157
80262.347
142415.64
191440.53
214063.48
207372.09
244116.78
466601.56
878961.23
1314444.1
1744198.6
2208454.6
2812494.2
3737536.8
5272150
7885602.5
12394992
20339656
34859578
62961556
1.2218433e+08
2.6393902e+08
6.777987e+08
2.3621632e+09
1.5962371e+10
2414.3321
3174.7157
3211.5585
4298.011
10546.067
30423.16
80016.305
142127.55
191182.45
213822.54
207172.79
244074.49
466787.62
878747.89
1313815.3
1743230.8
2207250.7
2811155.3
3736126.8
5270660.4
7883920.1
12392860
20336596
34854692
62953035
1.221681e+08
2.6390434e+08
6.7771041e+08
2.361858e+09
1.5960309e+10
2416.153
3176.4666
3212.6909
4297.6471
10531.066
30338.298
79770.272
141838.97
190924.02
213581.42
206973.38
244032.32
466973.49
878532.16
1313184.6
1742261.5
2206045.5
2809814.4
3734713.2
5269164.4
7882227
12390711
20333508
34849762
62944440
1.2215172e+08
2.6386938e+08
6.7762145e+08
2.3615505e+09
1.595823e+10
2417.997
3178.2457
3213.8378
4297.2815
10516.056
30253.569
79524.261
141549.9
190665.25
213340.14
206773.86
243990.22
467159.12
878314.26
1312552.7
1741291.6
2204840
2808473.5
3733299.7
5267668.1
7880532.7
12388559
20330414
34844818
62935814
1.2213529e+08
2.6383428e+08
6.775321e+08
2.3612417e+09
1.5956143e+10
2419.8643
3180.0525
3214.9989
4296.9137
10501.036
30168.973
79278.271
141260.34
190406.12
213098.7
206574.23
243948.13
467344.3
878093.98
1311919.1
1740320.6
2203633.5
2807131
3731883.3
5266166.7
7878829.9
12386394
20327298
34839837
62927127
1.2211874e+08
2.6379894e+08
6.7744217e+08
2.3609309e+09
1.5954042e+10
2421.7544
3181.8868
3216.1743
4296.5434
10486.006
30084.505
79032.288
140970.28
190146.64
212857.11
206374.48
243905.96
467528.84
877871.56
1311284.5
1739349.4
2202427.3
2805789.2
3730467.7
5264665.9
7877126.8
12384226
20324175
34834844
62918412
1.2210212e+08
2.6376346e+08
6.7735186e+08
2.3606188e+09
1.5951931e+10
2423.6672
3183.7485
3217.3636
4296.1701
10470.963
30000.163
78786.297
140679.73
189886.82
212615.38
206174.64
243863.57
467712.21
877646.7
1310648.2
1738376.9
2201219.8
2804445.2
3729048.4
5263158.6
7875413
12382041
20321026
34829807
62909624
1.2208538e+08
2.6372771e+08
6.7726089e+08
2.3603045e+09
1.5949805e+10
2425.6025
3185.637
3218.5667
4295.7936
10455.906
29915.945
78540.286
140388.68
189626.65
212373.52
205974.69
243820.78
467893.74
877419.46
1310010.8
1737403.9
2200012.1
2803101.4
3727629.2
5261651
7873698
12379853
20317870
34824755
62900806
1.2206857e+08
2.6369182e+08
6.7716955e+08
2.3599888e+09
1.594767e+10
2427.56
3187.5522
3219.7835
4295.4133
10440.835
29831.85
78294.253
140097.14
189366.13
212131.55
205774.65
243777.38
468072.31
877189.36
1309371.9
1736430.1
2198803.6
2801756.1
3726207.2
5260138.6
7871974.8
12377652
20314693
34819669
62891929
1.2205166e+08
2.636557e+08
6.7707763e+08
2.3596713e+09
1.5945522e+10
2429.5394
3189.4936
3221.0137
4295.029
10425.749
29747.875
78048.209
139805.11
189105.27
211889.48
205574.55
243733.08
468246.12
876955.82
1308731.8
1735456.2
2197595.6
2800411.6
3724786
5258626.6
7870251.2
12375448
20311510
34814569
62883022
1.2203468e+08
2.6361943e+08
6.7698535e+08
2.3593524e+09
1.5943365e+10
2431.5403
3191.4609
3222.2571
4294.6402
10410.645
29664.02
77802.174
139512.57
188844.06
211647.32
205374.44
243687.54
468412.13
876717.18
1308089.7
1734481.1
2196386.3
2799065.1
3723361.1
5257108.1
7868516.8
12373228
20308300
34809427
62874044
1.2201757e+08
2.635829e+08
6.768924e+08
2.3590312e+09
1.5941192e+10
2433.5623
3193.4535
3223.5136
4294.2466
10395.523
29580.284
77556.171
139219.54
188582.52
211405.1
205174.41
243640.47
468565.69
876471.54
1307445.6
1733505.6
2195177.1
2797718.8
3721936.5
5255589.4
7866781.3
12371004
20305083
34804270
62865036
1.220004e+08
2.6354622e+08
6.7679907e+08
2.3587088e+09
1.593901e+10
2435.6051
3195.4712
3224.7827
4293.8478
10380.382
29496.664
77310.204
138926.01
188320.64
211162.86
204974.61
243591.67
468699.2
876215.24
1306798.7
1732529.1
2193967.3
2796371.4
3720509.4
5254066.3
7865038.1
12368768
20301845
34799079
62855970
1.2198312e+08
2.6350933e+08
6.7670519e+08
2.3583845e+09
1.5936815e+10
2437.6683
3197.5132
3226.0644
4293.4433
10365.22
29413.157
77064.257
138631.99
188058.41
210920.62
204775.24
243541.32
468800.43
875942.2
1306147.8
1731552.2
2192757.9
2795024.7
3719082.9
5252543.3
7863294.2
12366529
20298601
34793874
62846875
1.2196577e+08
2.6347228e+08
6.7661093e+08
2.3580589e+09
1.593461e+10
2439.7512
3199.5791
3227.3583
4293.0329
10350.036
29329.762