/*--------------------------------*- C++ -*----------------------------------*\
| =========                 |                                                 |
| \\      /  F ield         | OpenFOAM: The Open Source CFD Toolbox           |
|  \\    /   O peration     | Version:  v2012                                 |
|   \\  /    A nd           | Website:  www.openfoam.com                      |
|    \\/     M anipulation  |                                                 |
\*---------------------------------------------------------------------------*/
FoamFile
{
    version     2.0;
    format      ascii;
    class       volScalarField;
    location    "350";
    object      p;
}
// * * * * * * * * * * * * * * * * * * * * * * * * * * * * * * * * * * * * * //

dimensions      [1 -1 -2 0 0 0 0];


internalField   nonuniform List<scalar> 
24000
(
2509008.5
2509008.1
2509006.6
2509003
2508997.3
2508990.5
2508989.1
2508992.6
2508996
2508998.7
2509000.6
2509001.8
2509002.6
2509003.1
2509003.4
2509003.6
2509003.6
2509003.7
2509003.7
2509003.7
2509003.7
2509003.7
2509003.7
2509003.7
2509003.7
2509003.7
2509003.7
2509003.7
2509003.7
2509003.7
2509024.2
2509023.9
2509023
2509021.7
2509020.4
2509019.8
2509020.7
2509021.8
2509022.6
2509023.3
2509023.8
2509024.1
2509024.4
2509024.6
2509024.8
2509024.9
2509025
2509025
2509025
2509025.1
2509025.1
2509025.1
2509025.1
2509025.1
2509025.1
2509025.1
2509025.1
2509025.1
2509025.1
2509025.1
2509040.6
2509040.2
2509039.5
2509038.7
2509038
2509037.9
2509038.2
2509038.7
2509039.1
2509039.5
2509039.7
2509039.9
2509040
2509040
2509040
2509040
2509040
2509040
2509040
2509040
2509040
2509040
2509040
2509040
2509040
2509040
2509040
2509040
2509040
2509040
2509057
2509056.8
2509056.4
2509056
2509055.8
2509056
2509056.2
2509056.4
2509056.6
2509056.8
2509056.9
2509057
2509057
2509057.1
2509057.1
2509057.1
2509057.2
2509057.2
2509057.2
2509057.2
2509057.2
2509057.2
2509057.2
2509057.2
2509057.2
2509057.2
2509057.2
2509057.2
2509057.2
2509057.2
2509073.6
2509073.4
2509073.2
2509073.1
2509073.1
2509073.2
2509073.4
2509073.4
2509073.5
2509073.6
2509073.6
2509073.7
2509073.7
2509073.7
2509073.8
2509073.8
2509073.8
2509073.8
2509073.8
2509073.8
2509073.8
2509073.8
2509073.8
2509073.8
2509073.8
2509073.8
2509073.8
2509073.8
2509073.8
2509073.8
2509090.2
2509090.1
2509090
2509090
2509090.1
2509090.2
2509090.3
2509090.3
2509090.4
2509090.4
2509090.4
2509090.4
2509090.5
2509090.5
2509090.5
2509090.5
2509090.5
2509090.5
2509090.5
2509090.5
2509090.5
2509090.5
2509090.5
2509090.5
2509090.5
2509090.5
2509090.5
2509090.5
2509090.5
2509090.5
2509106.8
2509106.8
2509106.8
2509106.9
2509107
2509107.1
2509107.1
2509107.1
2509107.1
2509107.1
2509107.1
2509107.2
2509107.2
2509107.2
2509107.2
2509107.2
2509107.2
2509107.2
2509107.2
2509107.2
2509107.2
2509107.2
2509107.2
2509107.2
2509107.2
2509107.2
2509107.2
2509107.2
2509107.2
2509107.2
2509123.5
2509123.5
2509123.6
2509123.6
2509123.8
2509123.9
2509123.9
2509123.8
2509123.8
2509123.8
2509123.8
2509123.8
2509123.9
2509123.9
2509123.9
2509123.9
2509123.9
2509123.9
2509123.9
2509123.9
2509123.9
2509123.9
2509123.9
2509123.9
2509123.9
2509123.9
2509123.9
2509123.9
2509123.9
2509123.9
2509140.1
2509140.2
2509140.3
2509140.4
2509140.5
2509140.6
2509140.6
2509140.5
2509140.5
2509140.5
2509140.5
2509140.5
2509140.5
2509140.5
2509140.5
2509140.5
2509140.5
2509140.5
2509140.5
2509140.5
2509140.5
2509140.5
2509140.5
2509140.5
2509140.5
2509140.5
2509140.5
2509140.5
2509140.5
2509140.5
2509156.8
2509156.8
2509156.9
2509157
2509157.2
2509157.2
2509157.3
2509157.2
2509157.2
2509157.2
2509157.2
2509157.2
2509157.2
2509157.2
2509157.2
2509157.2
2509157.2
2509157.2
2509157.2
2509157.2
2509157.2
2509157.2
2509157.2
2509157.2
2509157.2
2509157.2
2509157.2
2509157.2
2509157.2
2509157.2
2509173.4
2509173.5
2509173.6
2509173.7
2509173.8
2509173.9
2509173.9
2509173.8
2509173.8
2509173.8
2509173.8
2509173.8
2509173.8
2509173.8
2509173.8
2509173.8
2509173.8
2509173.8
2509173.8
2509173.8
2509173.8
2509173.8
2509173.8
2509173.8
2509173.8
2509173.8
2509173.8
2509173.8
2509173.8
2509173.8
2509190
2509190.1
2509190.2
2509190.3
2509190.4
2509190.5
2509190.5
2509190.4
2509190.4
2509190.4
2509190.4
2509190.4
2509190.4
2509190.4
2509190.4
2509190.4
2509190.4
2509190.4
2509190.4
2509190.4
2509190.4
2509190.4
2509190.4
2509190.4
2509190.4
2509190.4
2509190.4
2509190.4
2509190.4
2509190.4
2509206.5
2509206.7
2509206.8
2509206.9
2509207
2509207.1
2509207.1
2509207
2509207
2509207
2509207
2509206.9
2509206.9
2509206.9
2509206.9
2509206.9
2509206.9
2509206.9
2509206.9
2509206.9
2509206.9
2509206.9
2509206.9
2509206.9
2509206.9
2509206.9
2509206.9
2509206.9
2509206.9
2509206.9
2509223.1
2509223.2
2509223.3
2509223.4
2509223.5
2509223.6
2509223.6
2509223.6
2509223.5
2509223.5
2509223.5
2509223.5
2509223.5
2509223.5
2509223.5
2509223.5
2509223.5
2509223.5
2509223.5
2509223.5
2509223.5
2509223.5
2509223.5
2509223.5
2509223.5
2509223.5
2509223.5
2509223.5
2509223.5
2509223.5
2509239.6
2509239.7
2509239.9
2509240
2509240.1
2509240.1
2509240.2
2509240.1
2509240.1
2509240
2509240
2509240
2509240
2509240
2509240
2509240
2509240
2509240
2509240
2509240
2509240
2509240
2509240
2509240
2509240
2509240
2509240
2509240
2509240
2509240
2509256.1
2509256.2
2509256.4
2509256.5
2509256.6
2509256.7
2509256.7
2509256.6
2509256.6
2509256.5
2509256.5
2509256.5
2509256.5
2509256.5
2509256.5
2509256.5
2509256.5
2509256.5
2509256.5
2509256.5
2509256.5
2509256.5
2509256.5
2509256.5
2509256.5
2509256.5
2509256.5
2509256.5
2509256.5
2509256.5
2509272.6
2509272.7
2509272.8
2509272.9
2509273.1
2509273.1
2509273.1
2509273.1
2509273
2509273
2509273
2509273
2509273
2509273
2509273
2509273
2509273
2509273
2509273
2509273
2509273
2509273
2509273
2509273
2509273
2509273
2509273
2509273
2509273
2509273
2509289.1
2509289.2
2509289.3
2509289.4
2509289.5
2509289.6
2509289.6
2509289.5
2509289.5
2509289.5
2509289.5
2509289.5
2509289.5
2509289.5
2509289.5
2509289.5
2509289.5
2509289.5
2509289.5
2509289.5
2509289.5
2509289.5
2509289.5
2509289.5
2509289.5
2509289.5
2509289.5
2509289.5
2509289.5
2509289.5
2509305.5
2509305.6
2509305.7
2509305.8
2509305.9
2509306
2509306
2509306
2509305.9
2509305.9
2509305.9
2509305.9
2509305.9
2509305.9
2509305.9
2509305.9
2509305.9
2509305.9
2509305.9
2509305.9
2509305.9
2509305.9
2509305.9
2509305.9
2509305.9
2509305.9
2509305.9
2509305.9
2509305.9
2509305.9
2509321.9
2509322
2509322.1
2509322.2
2509322.4
2509322.4
2509322.4
2509322.4
2509322.3
2509322.3
2509322.3
2509322.3
2509322.3
2509322.3
2509322.3
2509322.3
2509322.3
2509322.3
2509322.3
2509322.3
2509322.3
2509322.3
2509322.3
2509322.3
2509322.3
2509322.3
2509322.3
2509322.3
2509322.3
2509322.3
2509338.3
2509338.4
2509338.5
2509338.6
2509338.7
2509338.8
2509338.8
2509338.7
2509338.7
2509338.7
2509338.7
2509338.7
2509338.7
2509338.7
2509338.7
2509338.7
2509338.7
2509338.7
2509338.7
2509338.7
2509338.7
2509338.7
2509338.7
2509338.7
2509338.7
2509338.7
2509338.7
2509338.7
2509338.7
2509338.7
2509354.7
2509354.8
2509354.9
2509355
2509355.1
2509355.2
2509355.2
2509355.1
2509355.1
2509355.1
2509355
2509355
2509355
2509355
2509355
2509355
2509355
2509355
2509355
2509355
2509355
2509355
2509355
2509355
2509355
2509355
2509355
2509355
2509355
2509355
2509371
2509371.1
2509371.2
2509371.3
2509371.4
2509371.5
2509371.5
2509371.4
2509371.4
2509371.4
2509371.4
2509371.4
2509371.4
2509371.4
2509371.4
2509371.4
2509371.4
2509371.4
2509371.4
2509371.4
2509371.4
2509371.4
2509371.4
2509371.4
2509371.4
2509371.4
2509371.4
2509371.4
2509371.4
2509371.4
2509387.3
2509387.4
2509387.5
2509387.6
2509387.7
2509387.8
2509387.8
2509387.8
2509387.7
2509387.7
2509387.7
2509387.7
2509387.7
2509387.7
2509387.7
2509387.7
2509387.7
2509387.7
2509387.7
2509387.7
2509387.7
2509387.7
2509387.7
2509387.7
2509387.7
2509387.7
2509387.7
2509387.7
2509387.7
2509387.7
2509403.6
2509403.7
2509403.8
2509403.9
2509404
2509404.1
2509404.1
2509404
2509404
2509404
2509404
2509404
2509404
2509404
2509404
2509404
2509404
2509404
2509404
2509404
2509404
2509404
2509404
2509404
2509404
2509404
2509404
2509404
2509404
2509404
2509419.9
2509420
2509420.1
2509420.2
2509420.3
2509420.4
2509420.4
2509420.3
2509420.3
2509420.3
2509420.2
2509420.2
2509420.2
2509420.2
2509420.2
2509420.2
2509420.2
2509420.2
2509420.2
2509420.2
2509420.2
2509420.2
2509420.2
2509420.2
2509420.2
2509420.2
2509420.2
2509420.2
2509420.2
2509420.2
2509436.1
2509436.2
2509436.3
2509436.4
2509436.5
2509436.6
2509436.6
2509436.5
2509436.5
2509436.5
2509436.5
2509436.5
2509436.5
2509436.5
2509436.5
2509436.5
2509436.5
2509436.5
2509436.5
2509436.5
2509436.5
2509436.5
2509436.5
2509436.5
2509436.5
2509436.5
2509436.5
2509436.5
2509436.5
2509436.5
2509452.3
2509452.4
2509452.5
2509452.6
2509452.8
2509452.8
2509452.8
2509452.8
2509452.7
2509452.7
2509452.7
2509452.7
2509452.7
2509452.7
2509452.7
2509452.7
2509452.7
2509452.7
2509452.7
2509452.7
2509452.7
2509452.7
2509452.7
2509452.7
2509452.7
2509452.7
2509452.7
2509452.7
2509452.7
2509452.7
2509468.5
2509468.6
2509468.7
2509468.8
2509468.9
2509469
2509469
2509469
2509468.9
2509468.9
2509468.9
2509468.9
2509468.9
2509468.9
2509468.9
2509468.9
2509468.9
2509468.9
2509468.9
2509468.9
2509468.9
2509468.9
2509468.9
2509468.9
2509468.9
2509468.9
2509468.9
2509468.9
2509468.9
2509468.9
2509484.7
2509484.8
2509484.9
2509485
2509485.1
2509485.2
2509485.2
2509485.1
2509485.1
2509485.1
2509485.1
2509485.1
2509485.1
2509485.1
2509485
2509485
2509485
2509485
2509485
2509485
2509485
2509485
2509485
2509485
2509485
2509485
2509485
2509485
2509485
2509485
2509500.8
2509500.9
2509501
2509501.1
2509501.3
2509501.3
2509501.3
2509501.3
2509501.2
2509501.2
2509501.2
2509501.2
2509501.2
2509501.2
2509501.2
2509501.2
2509501.2
2509501.2
2509501.2
2509501.2
2509501.2
2509501.2
2509501.2
2509501.2
2509501.2
2509501.2
2509501.2
2509501.2
2509501.2
2509501.2
2509516.9
2509517
2509517.2
2509517.3
2509517.4
2509517.4
2509517.5
2509517.4
2509517.4
2509517.3
2509517.3
2509517.3
2509517.3
2509517.3
2509517.3
2509517.3
2509517.3
2509517.3
2509517.3
2509517.3
2509517.3
2509517.3
2509517.3
2509517.3
2509517.3
2509517.3
2509517.3
2509517.3
2509517.3
2509517.3
2509533
2509533.1
2509533.3
2509533.4
2509533.5
2509533.5
2509533.6
2509533.5
2509533.5
2509533.4
2509533.4
2509533.4
2509533.4
2509533.4
2509533.4
2509533.4
2509533.4
2509533.4
2509533.4
2509533.4
2509533.4
2509533.4
2509533.4
2509533.4
2509533.4
2509533.4
2509533.4
2509533.4
2509533.4
2509533.4
2509549.1
2509549.2
2509549.3
2509549.4
2509549.6
2509549.6
2509549.6
2509549.6
2509549.5
2509549.5
2509549.5
2509549.5
2509549.5
2509549.5
2509549.5
2509549.5
2509549.5
2509549.5
2509549.5
2509549.5
2509549.5
2509549.5
2509549.5
2509549.5
2509549.5
2509549.5
2509549.5
2509549.5
2509549.5
2509549.5
2509565.2
2509565.3
2509565.4
2509565.5
2509565.6
2509565.7
2509565.7
2509565.6
2509565.6
2509565.6
2509565.5
2509565.5
2509565.5
2509565.5
2509565.5
2509565.5
2509565.5
2509565.5
2509565.5
2509565.5
2509565.5
2509565.5
2509565.5
2509565.5
2509565.5
2509565.5
2509565.5
2509565.5
2509565.5
2509565.5
2509581.2
2509581.3
2509581.4
2509581.5
2509581.6
2509581.7
2509581.7
2509581.6
2509581.6
2509581.6
2509581.6
2509581.6
2509581.6
2509581.6
2509581.6
2509581.6
2509581.6
2509581.6
2509581.6
2509581.6
2509581.6
2509581.6
2509581.6
2509581.6
2509581.6
2509581.6
2509581.6
2509581.6
2509581.6
2509581.6
2509597.2
2509597.3
2509597.4
2509597.5
2509597.6
2509597.7
2509597.7
2509597.6
2509597.6
2509597.6
2509597.6
2509597.6
2509597.6
2509597.6
2509597.6
2509597.6
2509597.6
2509597.6
2509597.6
2509597.6
2509597.6
2509597.6
2509597.6
2509597.6
2509597.6
2509597.6
2509597.6
2509597.6
2509597.6
2509597.6
2509613.2
2509613.3
2509613.4
2509613.5
2509613.6
2509613.7
2509613.7
2509613.6
2509613.6
2509613.6
2509613.6
2509613.5
2509613.5
2509613.5
2509613.5
2509613.5
2509613.5
2509613.5
2509613.5
2509613.5
2509613.5
2509613.5
2509613.5
2509613.5
2509613.5
2509613.5
2509613.5
2509613.5
2509613.5
2509613.5
2509629.1
2509629.2
2509629.4
2509629.4
2509629.6
2509629.6
2509629.6
2509629.6
2509629.5
2509629.5
2509629.5
2509629.5
2509629.5
2509629.5
2509629.5
2509629.5
2509629.5
2509629.5
2509629.5
2509629.5
2509629.5
2509629.5
2509629.5
2509629.5
2509629.5
2509629.5
2509629.5
2509629.5
2509629.5
2509629.5
2509645.1
2509645.2
2509645.3
2509645.4
2509645.5
2509645.6
2509645.6
2509645.5
2509645.5
2509645.5
2509645.4
2509645.4
2509645.4
2509645.4
2509645.4
2509645.4
2509645.4
2509645.4
2509645.4
2509645.4
2509645.4
2509645.4
2509645.4
2509645.4
2509645.4
2509645.4
2509645.4
2509645.4
2509645.4
2509645.4
2509661
2509661.1
2509661.2
2509661.3
2509661.4
2509661.5
2509661.5
2509661.4
2509661.4
2509661.4
2509661.4
2509661.3
2509661.3
2509661.3
2509661.3
2509661.3
2509661.3
2509661.3
2509661.3
2509661.3
2509661.3
2509661.3
2509661.3
2509661.3
2509661.3
2509661.3
2509661.3
2509661.3
2509661.3
2509661.3
2509676.9
2509677
2509677.1
2509677.2
2509677.3
2509677.4
2509677.4
2509677.3
2509677.3
2509677.2
2509677.2
2509677.2
2509677.2
2509677.2
2509677.2
2509677.2
2509677.2
2509677.2
2509677.2
2509677.2
2509677.2
2509677.2
2509677.2
2509677.2
2509677.2
2509677.2
2509677.2
2509677.2
2509677.2
2509677.2
2509692.7
2509692.8
2509692.9
2509693
2509693.2
2509693.2
2509693.2
2509693.2
2509693.1
2509693.1
2509693.1
2509693.1
2509693.1
2509693.1
2509693.1
2509693.1
2509693.1
2509693.1
2509693.1
2509693.1
2509693.1
2509693.1
2509693.1
2509693.1
2509693.1
2509693.1
2509693.1
2509693.1
2509693.1
2509693.1
2509708.6
2509708.7
2509708.8
2509708.9
2509709
2509709.1
2509709.1
2509709
2509709
2509708.9
2509708.9
2509708.9
2509708.9
2509708.9
2509708.9
2509708.9
2509708.9
2509708.9
2509708.9
2509708.9
2509708.9
2509708.9
2509708.9
2509708.9
2509708.9
2509708.9
2509708.9
2509708.9
2509708.9
2509708.9
2509724.4
2509724.5
2509724.6
2509724.7
2509724.8
2509724.9
2509724.9
2509724.8
2509724.8
2509724.8
2509724.8
2509724.8
2509724.7
2509724.7
2509724.7
2509724.7
2509724.7
2509724.7
2509724.7
2509724.7
2509724.7
2509724.7
2509724.7
2509724.7
2509724.7
2509724.7
2509724.7
2509724.7
2509724.7
2509724.7
2509740.2
2509740.3
2509740.4
2509740.5
2509740.6
2509740.7
2509740.7
2509740.6
2509740.6
2509740.6
2509740.6
2509740.5
2509740.5
2509740.5
2509740.5
2509740.5
2509740.5
2509740.5
2509740.5
2509740.5
2509740.5
2509740.5
2509740.5
2509740.5
2509740.5
2509740.5
2509740.5
2509740.5
2509740.5
2509740.5
2509755.9
2509756
2509756.2
2509756.3
2509756.4
2509756.4
2509756.5
2509756.4
2509756.4
2509756.3
2509756.3
2509756.3
2509756.3
2509756.3
2509756.3
2509756.3
2509756.3
2509756.3
2509756.3
2509756.3
2509756.3
2509756.3
2509756.3
2509756.3
2509756.3
2509756.3
2509756.3
2509756.3
2509756.3
2509756.3
2509771.7
2509771.8
2509771.9
2509772
2509772.1
2509772.2
2509772.2
2509772.1
2509772.1
2509772.1
2509772.1
2509772.1
2509772.1
2509772.1
2509772.1
2509772.1
2509772.1
2509772.1
2509772.1
2509772.1
2509772.1
2509772.1
2509772.1
2509772.1
2509772.1
2509772.1
2509772.1
2509772.1
2509772.1
2509772.1
2509787.4
2509787.5
2509787.6
2509787.7
2509787.9
2509787.9
2509787.9
2509787.9
2509787.8
2509787.8
2509787.8
2509787.8
2509787.8
2509787.8
2509787.8
2509787.8
2509787.8
2509787.8
2509787.8
2509787.8
2509787.8
2509787.8
2509787.8
2509787.8
2509787.8
2509787.8
2509787.8
2509787.8
2509787.8
2509787.8
2509803.1
2509803.2
2509803.3
2509803.4
2509803.6
2509803.6
2509803.6
2509803.6
2509803.5
2509803.5
2509803.5
2509803.5
2509803.5
2509803.5
2509803.5
2509803.5
2509803.5
2509803.5
2509803.5
2509803.5
2509803.5
2509803.5
2509803.5
2509803.5
2509803.5
2509803.5
2509803.5
2509803.5
2509803.5
2509803.5
2509818.8
2509818.9
2509819
2509819.1
2509819.2
2509819.3
2509819.3
2509819.2
2509819.2
2509819.2
2509819.2
2509819.2
2509819.2
2509819.2
2509819.2
2509819.2
2509819.2
2509819.2
2509819.2
2509819.2
2509819.2
2509819.2
2509819.2
2509819.2
2509819.2
2509819.2
2509819.2
2509819.2
2509819.2
2509819.2
2509834.5
2509834.6
2509834.7
2509834.8
2509834.9
2509834.9
2509835
2509834.9
2509834.9
2509834.8
2509834.8
2509834.8
2509834.8
2509834.8
2509834.8
2509834.8
2509834.8
2509834.8
2509834.8
2509834.8
2509834.8
2509834.8
2509834.8
2509834.8
2509834.8
2509834.8
2509834.8
2509834.8
2509834.8
2509834.8
2509850.1
2509850.2
2509850.3
2509850.4
2509850.5
2509850.6
2509850.6
2509850.5
2509850.5
2509850.5
2509850.5
2509850.5
2509850.5
2509850.5
2509850.5
2509850.5
2509850.5
2509850.5
2509850.5
2509850.5
2509850.5
2509850.5
2509850.5
2509850.5
2509850.5
2509850.5
2509850.5
2509850.5
2509850.5
2509850.5
2509865.7
2509865.8
2509865.9
2509866
2509866.1
2509866.2
2509866.2
2509866.1
2509866.1
2509866.1
2509866.1
2509866.1
2509866.1
2509866.1
2509866.1
2509866.1
2509866.1
2509866.1
2509866.1
2509866.1
2509866.1
2509866.1
2509866.1
2509866.1
2509866.1
2509866.1
2509866.1
2509866.1
2509866.1
2509866.1
2509881.3
2509881.4
2509881.5
2509881.6
2509881.7
2509881.8
2509881.8
2509881.7
2509881.7
2509881.7
2509881.7
2509881.7
2509881.7
2509881.7
2509881.7
2509881.7
2509881.7
2509881.7
2509881.7
2509881.7
2509881.7
2509881.7
2509881.7
2509881.7
2509881.7
2509881.7
2509881.7
2509881.7
2509881.7
2509881.7
2509896.9
2509897
2509897.1
2509897.2
2509897.3
2509897.3
2509897.4
2509897.3
2509897.3
2509897.2
2509897.2
2509897.2
2509897.2
2509897.2
2509897.2
2509897.2
2509897.2
2509897.2
2509897.2
2509897.2
2509897.2
2509897.2
2509897.2
2509897.2
2509897.2
2509897.2
2509897.2
2509897.2
2509897.2
2509897.2
2509912.4
2509912.5
2509912.6
2509912.7
2509912.8
2509912.9
2509912.9
2509912.8
2509912.8
2509912.8
2509912.8
2509912.8
2509912.8
2509912.8
2509912.8
2509912.8
2509912.8
2509912.8
2509912.8
2509912.8
2509912.8
2509912.8
2509912.8
2509912.8
2509912.8
2509912.8
2509912.8
2509912.8
2509912.8
2509912.8
2509927.9
2509928
2509928.1
2509928.2
2509928.3
2509928.4
2509928.4
2509928.4
2509928.3
2509928.3
2509928.3
2509928.3
2509928.3
2509928.3
2509928.3
2509928.3
2509928.3
2509928.3
2509928.3
2509928.3
2509928.3
2509928.3
2509928.3
2509928.3
2509928.3
2509928.3
2509928.3
2509928.3
2509928.3
2509928.3
2509943.4
2509943.5
2509943.6
2509943.7
2509943.8
2509943.9
2509943.9
2509943.8
2509943.8
2509943.8
2509943.8
2509943.8
2509943.8
2509943.8
2509943.8
2509943.8
2509943.8
2509943.8
2509943.8
2509943.8
2509943.8
2509943.8
2509943.8
2509943.8
2509943.8
2509943.8
2509943.8
2509943.8
2509943.8
2509943.8
2509958.9
2509959
2509959.1
2509959.2
2509959.3
2509959.4
2509959.4
2509959.3
2509959.3
2509959.3
2509959.3
2509959.3
2509959.3
2509959.3
2509959.3
2509959.3
2509959.3
2509959.3
2509959.3
2509959.3
2509959.3
2509959.3
2509959.3
2509959.3
2509959.3
2509959.3
2509959.3
2509959.3
2509959.3
2509959.3
2509974.3
2509974.4
2509974.6
2509974.7
2509974.8
2509974.8
2509974.9
2509974.8
2509974.8
2509974.7
2509974.7
2509974.7
2509974.7
2509974.7
2509974.7
2509974.7
2509974.7
2509974.7
2509974.7
2509974.7
2509974.7
2509974.7
2509974.7
2509974.7
2509974.7
2509974.7
2509974.7
2509974.7
2509974.7
2509974.7
2509989.8
2509989.9
2509990
2509990.1
2509990.2
2509990.3
2509990.3
2509990.2
2509990.2
2509990.2
2509990.1
2509990.1
2509990.1
2509990.1
2509990.1
2509990.1
2509990.1
2509990.1
2509990.1
2509990.1
2509990.1
2509990.1
2509990.1
2509990.1
2509990.1
2509990.1
2509990.1
2509990.1
2509990.1
2509990.1
2510005.2
2510005.3
2510005.4
2510005.5
2510005.6
2510005.7
2510005.7
2510005.6
2510005.6
2510005.6
2510005.6
2510005.5
2510005.5
2510005.5
2510005.5
2510005.5
2510005.5
2510005.5
2510005.5
2510005.5
2510005.5
2510005.5
2510005.5
2510005.5
2510005.5
2510005.5
2510005.5
2510005.5
2510005.5
2510005.5
2510020.6
2510020.7
2510020.8
2510020.9
2510021
2510021
2510021.1
2510021
2510021
2510021
2510020.9
2510020.9
2510020.9
2510020.9
2510020.9
2510020.9
2510020.9
2510020.9
2510020.9
2510020.9
2510020.9
2510020.9
2510020.9
2510020.9
2510020.9
2510020.9
2510020.9
2510020.9
2510020.9
2510020.9
2510035.9
2510036
2510036.2
2510036.2
2510036.4
2510036.4
2510036.4
2510036.4
2510036.3
2510036.3
2510036.3
2510036.3
2510036.3
2510036.3
2510036.3
2510036.3
2510036.3
2510036.3
2510036.3
2510036.3
2510036.3
2510036.3
2510036.3
2510036.3
2510036.3
2510036.3
2510036.3
2510036.3
2510036.3
2510036.3
2510051.3
2510051.4
2510051.5
2510051.6
2510051.7
2510051.8
2510051.8
2510051.7
2510051.7
2510051.7
2510051.6
2510051.6
2510051.6
2510051.6
2510051.6
2510051.6
2510051.6
2510051.6
2510051.6
2510051.6
2510051.6
2510051.6
2510051.6
2510051.6
2510051.6
2510051.6
2510051.6
2510051.6
2510051.6
2510051.6
2510066.6
2510066.7
2510066.8
2510066.9
2510067
2510067.1
2510067.1
2510067
2510067
2510067
2510067
2510067
2510067
2510067
2510067
2510067
2510067
2510067
2510067
2510067
2510067
2510067
2510067
2510067
2510067
2510067
2510067
2510067
2510067
2510067
2510081.9
2510082
2510082.1
2510082.2
2510082.3
2510082.4
2510082.4
2510082.3
2510082.3
2510082.3
2510082.3
2510082.3
2510082.3
2510082.3
2510082.3
2510082.3
2510082.3
2510082.3
2510082.3
2510082.3
2510082.3
2510082.3
2510082.3
2510082.3
2510082.3
2510082.3
2510082.3
2510082.3
2510082.3
2510082.3
2510097.2
2510097.3
2510097.4
2510097.5
2510097.6
2510097.6
2510097.7
2510097.6
2510097.6
2510097.6
2510097.5
2510097.5
2510097.5
2510097.5
2510097.5
2510097.5
2510097.5
2510097.5
2510097.5
2510097.5
2510097.5
2510097.5
2510097.5
2510097.5
2510097.5
2510097.5
2510097.5
2510097.5
2510097.5
2510097.5
2510112.4
2510112.5
2510112.7
2510112.7
2510112.9
2510112.9
2510112.9
2510112.9
2510112.8
2510112.8
2510112.8
2510112.8
2510112.8
2510112.8
2510112.8
2510112.8
2510112.8
2510112.8
2510112.8
2510112.8
2510112.8
2510112.8
2510112.8
2510112.8
2510112.8
2510112.8
2510112.8
2510112.8
2510112.8
2510112.8
2510127.7
2510127.8
2510127.9
2510128
2510128.1
2510128.1
2510128.2
2510128.1
2510128.1
2510128
2510128
2510128
2510128
2510128
2510128
2510128
2510128
2510128
2510128
2510128
2510128
2510128
2510128
2510128
2510128
2510128
2510128
2510128
2510128
2510128
2510142.9
2510143
2510143.1
2510143.2
2510143.3
2510143.3
2510143.4
2510143.3
2510143.3
2510143.2
2510143.2
2510143.2
2510143.2
2510143.2
2510143.2
2510143.2
2510143.2
2510143.2
2510143.2
2510143.2
2510143.2
2510143.2
2510143.2
2510143.2
2510143.2
2510143.2
2510143.2
2510143.2
2510143.2
2510143.2
2510158.1
2510158.2
2510158.3
2510158.4
2510158.5
2510158.5
2510158.6
2510158.5
2510158.5
2510158.4
2510158.4
2510158.4
2510158.4
2510158.4
2510158.4
2510158.4
2510158.4
2510158.4
2510158.4
2510158.4
2510158.4
2510158.4
2510158.4
2510158.4
2510158.4
2510158.4
2510158.4
2510158.4
2510158.4
2510158.4
2510173.2
2510173.3
2510173.4
2510173.5
2510173.6
2510173.7
2510173.7
2510173.7
2510173.6
2510173.6
2510173.6
2510173.6
2510173.6
2510173.6
2510173.6
2510173.6
2510173.6
2510173.6
2510173.6
2510173.6
2510173.6
2510173.6
2510173.6
2510173.6
2510173.6
2510173.6
2510173.6
2510173.6
2510173.6
2510173.6
2510188.4
2510188.5
2510188.6
2510188.7
2510188.8
2510188.8
2510188.9
2510188.8
2510188.8
2510188.7
2510188.7
2510188.7
2510188.7
2510188.7
2510188.7
2510188.7
2510188.7
2510188.7
2510188.7
2510188.7
2510188.7
2510188.7
2510188.7
2510188.7
2510188.7
2510188.7
2510188.7
2510188.7
2510188.7
2510188.7
2510203.5
2510203.6
2510203.7
2510203.8
2510203.9
2510204
2510204
2510203.9
2510203.9
2510203.9
2510203.9
2510203.9
2510203.9
2510203.9
2510203.9
2510203.9
2510203.8
2510203.8
2510203.8
2510203.8
2510203.9
2510203.9
2510203.9
2510203.9
2510203.9
2510203.9
2510203.9
2510203.9
2510203.9
2510203.9
2510218.6
2510218.7
2510218.8
2510218.9
2510219
2510219.1
2510219.1
2510219
2510219
2510219
2510219
2510219
2510219
2510219
2510219
2510219
2510219
2510219
2510219
2510219
2510219
2510219
2510219
2510219
2510219
2510219
2510219
2510219
2510219
2510219
2510233.7
2510233.8
2510233.9
2510234
2510234.1
2510234.1
2510234.2
2510234.1
2510234.1
2510234.1
2510234
2510234
2510234
2510234
2510234
2510234
2510234
2510234
2510234
2510234
2510234
2510234
2510234
2510234
2510234
2510234
2510234
2510234
2510234
2510234
2510248.7
2510248.8
2510249
2510249
2510249.2
2510249.2
2510249.2
2510249.2
2510249.1
2510249.1
2510249.1
2510249.1
2510249.1
2510249.1
2510249.1
2510249.1
2510249.1
2510249.1
2510249.1
2510249.1
2510249.1
2510249.1
2510249.1
2510249.1
2510249.1
2510249.1
2510249.1
2510249.1
2510249.1
2510249.1
2510263.8
2510263.9
2510264
2510264.1
2510264.2
2510264.2
2510264.3
2510264.2
2510264.2
2510264.1
2510264.1
2510264.1
2510264.1
2510264.1
2510264.1
2510264.1
2510264.1
2510264.1
2510264.1
2510264.1
2510264.1
2510264.1
2510264.1
2510264.1
2510264.1
2510264.1
2510264.1
2510264.1
2510264.1
2510264.1
2510278.8
2510278.9
2510279
2510279.1
2510279.2
2510279.3
2510279.3
2510279.2
2510279.2
2510279.2
2510279.2
2510279.1
2510279.1
2510279.1
2510279.1
2510279.1
2510279.1
2510279.1
2510279.1
2510279.1
2510279.1
2510279.1
2510279.1
2510279.1
2510279.1
2510279.1
2510279.1
2510279.1
2510279.1
2510279.1
2510293.8
2510293.9
2510294
2510294.1
2510294.2
2510294.2
2510294.3
2510294.2
2510294.2
2510294.2
2510294.1
2510294.1
2510294.1
2510294.1
2510294.1
2510294.1
2510294.1
2510294.1
2510294.1
2510294.1
2510294.1
2510294.1
2510294.1
2510294.1
2510294.1
2510294.1
2510294.1
2510294.1
2510294.1
2510294.1
2510308.8
2510308.9
2510309
2510309.1
2510309.2
2510309.2
2510309.3
2510309.2
2510309.2
2510309.1
2510309.1
2510309.1
2510309.1
2510309.1
2510309.1
2510309.1
2510309.1
2510309.1
2510309.1
2510309.1
2510309.1
2510309.1
2510309.1
2510309.1
2510309.1
2510309.1
2510309.1
2510309.1
2510309.1
2510309.1
2510323.7
2510323.8
2510323.9
2510324
2510324.1
2510324.2
2510324.2
2510324.1
2510324.1
2510324.1
2510324.1
2510324.1
2510324.1
2510324.1
2510324.1
2510324.1
2510324.1
2510324.1
2510324.1
2510324.1
2510324.1
2510324.1
2510324.1
2510324.1
2510324.1
2510324.1
2510324.1
2510324.1
2510324.1
2510324.1
2510338.6
2510338.7
2510338.9
2510338.9
2510339.1
2510339.1
2510339.1
2510339.1
2510339
2510339
2510339
2510339
2510339
2510339
2510339
2510339
2510339
2510339
2510339
2510339
2510339
2510339
2510339
2510339
2510339
2510339
2510339
2510339
2510339
2510339
2510353.6
2510353.7
2510353.8
2510353.8
2510354
2510354
2510354.1
2510354
2510354
2510353.9
2510353.9
2510353.9
2510353.9
2510353.9
2510353.9
2510353.9
2510353.9
2510353.9
2510353.9
2510353.9
2510353.9
2510353.9
2510353.9
2510353.9
2510353.9
2510353.9
2510353.9
2510353.9
2510353.9
2510353.9
2510368.4
2510368.5
2510368.7
2510368.7
2510368.9
2510368.9
2510368.9
2510368.9
2510368.8
2510368.8
2510368.8
2510368.8
2510368.8
2510368.8
2510368.8
2510368.8
2510368.8
2510368.8
2510368.8
2510368.8
2510368.8
2510368.8
2510368.8
2510368.8
2510368.8
2510368.8
2510368.8
2510368.8
2510368.8
2510368.8
2510383.3
2510383.4
2510383.5
2510383.6
2510383.7
2510383.8
2510383.8
2510383.7
2510383.7
2510383.7
2510383.7
2510383.7
2510383.7
2510383.7
2510383.7
2510383.7
2510383.7
2510383.7
2510383.7
2510383.7
2510383.7
2510383.7
2510383.7
2510383.7
2510383.7
2510383.7
2510383.7
2510383.7
2510383.7
2510383.7
2510398.2
2510398.3
2510398.4
2510398.4
2510398.6
2510398.6
2510398.7
2510398.6
2510398.6
2510398.5
2510398.5
2510398.5
2510398.5
2510398.5
2510398.5
2510398.5
2510398.5
2510398.5
2510398.5
2510398.5
2510398.5
2510398.5
2510398.5
2510398.5
2510398.5
2510398.5
2510398.5
2510398.5
2510398.5
2510398.5
2510413
2510413.1
2510413.2
2510413.3
2510413.4
2510413.4
2510413.5
2510413.4
2510413.4
2510413.3
2510413.3
2510413.3
2510413.3
2510413.3
2510413.3
2510413.3
2510413.3
2510413.3
2510413.3
2510413.3
2510413.3
2510413.3
2510413.3
2510413.3
2510413.3
2510413.3
2510413.3
2510413.3
2510413.3
2510413.3
2510427.8
2510427.9
2510428
2510428.1
2510428.2
2510428.2
2510428.3
2510428.2
2510428.2
2510428.2
2510428.1
2510428.1
2510428.1
2510428.1
2510428.1
2510428.1
2510428.1
2510428.1
2510428.1
2510428.1
2510428.1
2510428.1
2510428.1
2510428.1
2510428.1
2510428.1
2510428.1
2510428.1
2510428.1
2510428.1
2510442.6
2510442.7
2510442.8
2510442.9
2510443
2510443
2510443.1
2510443
2510443
2510442.9
2510442.9
2510442.9
2510442.9
2510442.9
2510442.9
2510442.9
2510442.9
2510442.9
2510442.9
2510442.9
2510442.9
2510442.9
2510442.9
2510442.9
2510442.9
2510442.9
2510442.9
2510442.9
2510442.9
2510442.9
2510457.3
2510457.4
2510457.5
2510457.6
2510457.7
2510457.8
2510457.8
2510457.7
2510457.7
2510457.7
2510457.7
2510457.7
2510457.7
2510457.7
2510457.7
2510457.7
2510457.7
2510457.7
2510457.7
2510457.7
2510457.7
2510457.7
2510457.7
2510457.7
2510457.7
2510457.7
2510457.7
2510457.7
2510457.7
2510457.7
2510472.1
2510472.2
2510472.3
2510472.4
2510472.5
2510472.5
2510472.6
2510472.5
2510472.5
2510472.4
2510472.4
2510472.4
2510472.4
2510472.4
2510472.4
2510472.4
2510472.4
2510472.4
2510472.4
2510472.4
2510472.4
2510472.4
2510472.4
2510472.4
2510472.4
2510472.4
2510472.4
2510472.4
2510472.4
2510472.4
2510486.8
2510486.9
2510487
2510487.1
2510487.2
2510487.2
2510487.3
2510487.2
2510487.2
2510487.2
2510487.1
2510487.1
2510487.1
2510487.1
2510487.1
2510487.1
2510487.1
2510487.1
2510487.1
2510487.1
2510487.1
2510487.1
2510487.1
2510487.1
2510487.1
2510487.1
2510487.1
2510487.1
2510487.1
2510487.1
2510501.5
2510501.6
2510501.7
2510501.8
2510501.9
2510501.9
2510502
2510501.9
2510501.9
2510501.9
2510501.8
2510501.8
2510501.8
2510501.8
2510501.8
2510501.8
2510501.8
2510501.8
2510501.8
2510501.8
2510501.8
2510501.8
2510501.8
2510501.8
2510501.8
2510501.8
2510501.8
2510501.8
2510501.8
2510501.8
2510516.2
2510516.3
2510516.4
2510516.5
2510516.6
2510516.6
2510516.7
2510516.6
2510516.6
2510516.5
2510516.5
2510516.5
2510516.5
2510516.5
2510516.5
2510516.5
2510516.5
2510516.5
2510516.5
2510516.5
2510516.5
2510516.5
2510516.5
2510516.5
2510516.5
2510516.5
2510516.5
2510516.5
2510516.5
2510516.5
2510530.8
2510530.9
2510531
2510531.1
2510531.2
2510531.3
2510531.3
2510531.2
2510531.2
2510531.2
2510531.2
2510531.2
2510531.2
2510531.2
2510531.2
2510531.2
2510531.2
2510531.2
2510531.2
2510531.2
2510531.2
2510531.2
2510531.2
2510531.2
2510531.2
2510531.2
2510531.2
2510531.2
2510531.2
2510531.2
2510545.5
2510545.6
2510545.7
2510545.8
2510545.9
2510545.9
2510546
2510545.9
2510545.9
2510545.8
2510545.8
2510545.8
2510545.8
2510545.8
2510545.8
2510545.8
2510545.8
2510545.8
2510545.8
2510545.8
2510545.8
2510545.8
2510545.8
2510545.8
2510545.8
2510545.8
2510545.8
2510545.8
2510545.8
2510545.8
2510560.1
2510560.2
2510560.3
2510560.4
2510560.5
2510560.5
2510560.6