/*--------------------------------*- C++ -*----------------------------------*\
| =========                 |                                                 |
| \\      /  F ield         | OpenFOAM: The Open Source CFD Toolbox           |
|  \\    /   O peration     | Version:  v2012                                 |
|   \\  /    A nd           | Website:  www.openfoam.com                      |
|    \\/     M anipulation  |                                                 |
\*---------------------------------------------------------------------------*/
FoamFile
{
    version     2.0;
    format      ascii;
    class       surfaceScalarField;
    location    "350";
    object      phi;
}
// * * * * * * * * * * * * * * * * * * * * * * * * * * * * * * * * * * * * * //

dimensions      [1 0 -1 0 0 0 0];
oriented        oriented;


internalField   nonuniform List<scalar> 
47170
(
-3.8638998e-09
-3.9781023e-05
-5.8263136e-09
-3.3032482e-05
-4.9562265e-09
-2.6789761e-05
-2.7627817e-09
-2.1395883e-05
-2.7420527e-09
-1.656066e-05
-9.9640378e-09
-1.1701428e-05
-1.5618712e-08
-7.257504e-06
-1.4431689e-08
-4.4252805e-06
-1.1935056e-08
-2.8545263e-06
-9.6725395e-09
-1.928088e-06
-7.7076668e-09
-1.3415791e-06
-6.0925885e-09
-9.4097921e-07
-4.8658616e-09
-6.5195713e-07
-3.9058816e-09
-4.4817088e-07
-3.1239533e-09
-3.0798789e-07
-2.4782142e-09
-2.1116012e-07
-1.9492855e-09
-1.4426956e-07
-1.5180283e-09
-9.814884e-08
-1.1659099e-09
-6.6439785e-08
-8.7685984e-10
-4.4721791e-08
-6.411385e-10
-2.9903778e-08
-4.5237596e-10
-1.9828007e-08
-3.0591715e-10
-1.3001986e-08
-1.964578e-10
-8.3985375e-09
-1.1826253e-10
-5.3121986e-09
-6.5185799e-11
-3.2589165e-09
-3.150166e-11
-1.9068328e-09
-1.2059459e-11
-1.0286931e-09
-2.636942e-12
-4.6912911e-10
-1.2211744e-10
-4.6062654e-09
-3.9776417e-05
-8.2071443e-09
-3.3028881e-05
-1.0512645e-08
-2.6787456e-05
-1.2391444e-08
-2.1394004e-05
-1.3893352e-08
-1.6559158e-05
-1.2311019e-08
-1.170301e-05
-7.4982833e-09
-7.2623171e-06
-4.3469113e-09
-4.4284319e-06
-2.96883e-09
-2.8559048e-06
-2.3308368e-09
-1.9287259e-06
-1.9941795e-09
-1.341916e-06
-1.74301e-09
-9.4123027e-07
-1.5254952e-09
-6.5217485e-07
-1.3570724e-09
-4.4833916e-07
-1.2124353e-09
-3.0813265e-07
-1.0722557e-09
-2.1130013e-07
-9.2644546e-10
-1.4441542e-07
-7.7432309e-10
-9.8300812e-08
-6.2307933e-10
-6.6591038e-08
-4.8137671e-10
-4.4863375e-08
-3.5666966e-10
-3.0028477e-08
-2.5282221e-10
-1.9931776e-08
-1.7087635e-10
-1.308392e-08
-1.0929788e-10
-8.4600707e-09
-6.5346976e-11
-5.3561283e-09
-3.5672496e-11
-3.2885739e-09
-1.6956905e-11
-1.9255096e-09
-6.304588e-12
-1.039314e-09
-1.2992578e-12
-4.7411216e-10
-1.234167e-10
-5.1220917e-09
-3.9771295e-05
-9.4564871e-09
-3.3024546e-05
-1.2487385e-08
-2.6784425e-05
-1.4566434e-08
-2.1391925e-05
-1.4802652e-08
-1.6558922e-05
-1.0593057e-08
-1.170722e-05
-4.7130494e-09
-7.2681973e-06
-1.6841901e-09
-4.4314607e-06
-6.6694955e-10
-2.8569222e-06
-3.3770895e-10
-1.929055e-06
-2.3972686e-10
-1.3420142e-06
-1.8889901e-10
-9.4128094e-07
-1.1200732e-10
-6.5225184e-07
-2.3117011e-11
-4.4842788e-07
6.5779557e-11
-3.082216e-07
1.3801288e-10
-2.113722e-07
1.8354165e-10
-1.4446097e-07
2.0093348e-10
-9.8318061e-08
1.9395953e-10
-6.6584064e-08
1.7044057e-10
-4.4839755e-08
1.384767e-10
-2.9996506e-08
1.0507458e-10
-1.9898308e-08
7.4650149e-11
-1.3053488e-08
4.9598186e-11
-8.4349805e-09
3.0504031e-11
-5.3370226e-09
1.7015979e-11
-3.2750676e-09
8.2315828e-12
-1.9167112e-09
3.1107274e-12
-1.0341796e-09
6.5794575e-13
-4.7164978e-10
-1.2275875e-10
-5.597907e-09
-3.9765697e-05
-1.0451495e-08
-3.3019692e-05
-1.3832062e-08
-2.6781045e-05
-1.5770237e-08
-2.1389987e-05
-1.5158285e-08
-1.6559534e-05
-9.8331366e-09
-1.1712545e-05
-3.424323e-09
-7.2746062e-06
-3.4376261e-10
-4.4345411e-06
5.3444521e-10
-2.8578005e-06
6.7069453e-10
-1.9291911e-06
5.4964008e-10
-1.3418932e-06
3.6512e-10
-9.4109627e-07
2.0840875e-10
-6.520952e-07
9.6059079e-11
-4.4831538e-07
2.2153552e-11
-3.0814774e-07
-2.4421981e-11
-2.1132547e-07
-5.2711197e-11
-1.444327e-07
-6.6331001e-11
-9.830432e-08
-6.8570462e-11
-6.6581829e-08
-6.2619573e-11
-4.4845621e-08
-5.2220224e-11
-3.0006902e-08
-4.0275265e-11
-1.9910201e-08
-2.8977102e-11
-1.3064779e-08
-1.9409349e-11
-8.4445197e-09
-1.2028029e-11
-5.3443971e-09
-6.7469107e-12
-3.2803343e-09
-3.2865885e-12
-1.9201684e-09
-1.2508034e-12
-1.0362108e-09
-2.6560949e-13
-4.7263169e-10
-1.2302436e-10
-5.9480806e-09
-3.9759749e-05
-1.1078491e-08
-3.3014562e-05
-1.4518912e-08
-2.6777604e-05
-1.6200583e-08
-2.1388305e-05
-1.5077951e-08
-1.6560657e-05
-9.3421543e-09
-1.171828e-05
-2.8068385e-09
-7.2811416e-06
2.5938881e-10
-4.4376073e-06
1.1144202e-09
-2.8586556e-06
1.1912818e-09
-1.9292679e-06
9.944906e-10
-1.3416965e-06
7.379189e-10
-9.4083957e-07
5.1776358e-10
-6.5187512e-07
3.5925432e-10
-4.4815673e-07
2.4943716e-10
-3.0803797e-07
1.7608047e-10
-2.1125199e-07
1.262744e-10
-1.4438291e-07
9.1567891e-11
-9.8269505e-08
6.6360619e-11
-6.6556625e-08
4.7651209e-11
-4.482683e-08
3.3466126e-11
-2.9992712e-08
2.2860244e-11
-1.9899541e-08
1.5008877e-11
-1.305692e-08
9.4119376e-12
-8.4388884e-09
5.5351258e-12
-5.340507e-09
2.985839e-12
-3.2777671e-09
1.409647e-12
-1.918575e-09
5.256026e-13
-1.0353108e-09
1.1285487e-13
-4.7220759e-10
-1.2291151e-10
-6.1964398e-09
-3.9753552e-05
-1.1477914e-08
-3.300928e-05
-1.489813e-08
-2.6774184e-05
-1.638623e-08
-2.1386817e-05
-1.4997822e-08
-1.6562046e-05
-9.105777e-09
-1.1724172e-05
-2.5232507e-09
-7.2877242e-06
5.4586087e-10
-4.4406763e-06
1.4330673e-09
-2.8595429e-06
1.4750369e-09
-1.9293097e-06
1.2315855e-09
-1.3414531e-06
9.2718456e-10
-9.4053506e-07
6.5813492e-10
-6.5160613e-07
4.5680119e-10
-4.4795529e-07
3.1148848e-10
-3.078927e-07
2.0902141e-10
-2.1114941e-07
1.3785329e-10
-1.4431176e-07
8.9395558e-11
-9.8220956e-08
5.6851912e-11
-6.6524089e-08
3.5535759e-11
-4.4805449e-08
2.1748164e-11
-2.9978923e-08
1.3054539e-11
-1.9890805e-08
7.6189705e-12
-1.3051478e-08
4.3138617e-12
-8.4355581e-09
2.3231634e-12
-5.3385101e-09
1.1717498e-12
-3.276602e-09
5.2151487e-13
-1.9179232e-09
1.8612585e-13
-1.0349721e-09
3.8290511e-14
-4.7205747e-10
-1.2287322e-10
-6.3661947e-09
-3.9747186e-05
-1.1727382e-08
-3.3003919e-05
-1.5109312e-08
-2.6770802e-05
-1.6471505e-08
-2.1385455e-05
-1.4948313e-08
-1.6563569e-05
-8.9941998e-09
-1.1730126e-05
-2.3843357e-09
-7.2943341e-06
7.060959e-10
-4.4437667e-06
1.6125792e-09
-2.8604494e-06
1.6331259e-09
-1.9293302e-06
1.3652242e-09
-1.3411853e-06
1.036609e-09
-9.4020635e-07
7.4316898e-10
-6.5131275e-07
5.2112715e-10
-4.4773315e-07
3.5961813e-10
-3.0773123e-07
2.4495803e-10
-2.1103466e-07
1.6485441e-10
-1.4423168e-07
1.0978071e-10
-9.8165804e-08
7.2214382e-11
-6.6486531e-08
4.6950729e-11
-4.4780128e-08
3.0024826e-11
-2.9961998e-08
1.8851129e-11
-1.9879594e-08
1.1508447e-11
-1.3044133e-08
6.7897643e-12
-8.4308166e-09
3.7980237e-12
-5.3355117e-09
1.9683224e-12
-3.2747621e-09
9.0134655e-13
-1.9168459e-09
3.2870137e-13
-1.0343901e-09
6.9405076e-14
-4.7179149e-10
-1.2280381e-10
-6.4815442e-09
-3.9740704e-05
-1.1886542e-08
-3.2998514e-05
-1.5236698e-08
-2.6767452e-05
-1.6523747e-08
-2.1384168e-05
-1.4932863e-08
-1.656516e-05
-8.9510934e-09
-1.1736108e-05
-2.3186557e-09
-7.3009666e-06
7.9538638e-10
-4.4468806e-06
1.7125056e-09
-2.8613666e-06
1.7208523e-09
-1.9293384e-06
1.4394442e-09
-1.3409039e-06
1.0970912e-09
-9.398639e-07
7.8960522e-10
-6.5100531e-07
5.5541018e-10
-4.4749886e-07
3.8421275e-10
-3.0756007e-07
2.6207839e-10
-2.1091244e-07
1.7641373e-10
-1.4414604e-07
1.1731896e-10
-9.8106639e-08
7.6965624e-11
-6.6446187e-08
4.9837822e-11
-4.4752952e-08
3.1727398e-11
-2.994389e-08
1.982151e-11
-1.9867658e-08
1.2050967e-11
-1.3036361e-08
7.0838572e-12
-8.4258334e-09
3.9552552e-12
-5.3323815e-09
2.0549619e-12
-3.2728533e-09
9.4118923e-13
-1.9157341e-09
3.4329478e-13
-1.0337921e-09
7.0953211e-14
-4.7151909e-10
-1.2273286e-10
-6.5607216e-09
-3.9734143e-05
-1.1991963e-08
-3.2993083e-05
-1.5321509e-08
-2.6764123e-05
-1.6566026e-08
-2.1382924e-05
-1.4941346e-08
-1.6566785e-05
-8.9447179e-09
-1.1742105e-05
-2.2913964e-09
-7.3076199e-06
8.4441211e-10
-4.4500164e-06
1.7688799e-09
-2.8622911e-06
1.7712987e-09
-1.9293408e-06
1.4824926e-09
-1.3406152e-06
1.1324235e-09
-9.3951376e-07
8.1700941e-10
-6.5068994e-07
5.7595528e-10
-4.4725773e-07
3.9928334e-10
-3.0738343e-07
2.7291755e-10
-2.1078599e-07
1.8407594e-10
-1.4405721e-07
1.2263939e-10
-9.8045132e-08
8.0597781e-11
-6.6404148e-08
5.2267875e-11
-4.4724567e-08
3.3313872e-11
-2.9924931e-08
2.0826241e-11
-1.9855132e-08
1.265967e-11
-1.3028187e-08
7.4332006e-12
-8.4205809e-09
4.1399403e-12
-5.3290759e-09
2.1352356e-12
-3.2708341e-09
9.7371431e-13
-1.9145565e-09
3.541679e-13
-1.0331579e-09
7.5381119e-14
-4.7122991e-10
-1.2265748e-10
-6.6166377e-09
-3.9727527e-05
-1.2066084e-08
-3.2987633e-05
-1.5384714e-08
-2.6760804e-05
-1.6606382e-08
-2.1381702e-05
-1.4964353e-08
-1.6568427e-05
-8.9607442e-09
-1.1748108e-05
-2.2863283e-09
-7.3142944e-06
8.6981132e-10
-4.4531725e-06
1.8005974e-09
-2.863222e-06
1.8006572e-09
-1.9293408e-06
1.5078328e-09
-1.3403224e-06
1.1532317e-09
-9.3915908e-07
8.330954e-10
-6.5036985e-07
5.8796889e-10
-4.4701252e-07
4.0804208e-10
-3.0720353e-07
2.7914872e-10
-2.1065703e-07
1.8841746e-10
-1.439665e-07
1.2559881e-10
-9.7982251e-08
8.2581771e-11
-6.6361137e-08
5.3571e-11
-4.4695511e-08
3.4162729e-11
-2.9905521e-08
2.1369252e-11
-1.9842308e-08
1.3007656e-11
-1.301982e-08
7.651838e-12
-8.4152061e-09
4.2754668e-12
-5.3256944e-09
2.2214572e-12
-3.2687692e-09
1.0178458e-12
-1.9133525e-09
3.7138439e-13
-1.0325096e-09
7.707668e-14
-4.709343e-10
-1.225804e-10
-6.6578537e-09
-3.9720869e-05
-1.21222e-08
-3.2982169e-05
-1.5437005e-08
-2.6757489e-05
-1.6647599e-08
-2.1380491e-05
-1.4997117e-08
-1.6570077e-05
-8.9895268e-09
-1.1754116e-05
-2.293793e-09
-7.3209901e-06
8.8149039e-10
-4.4563477e-06
1.8187836e-09
-2.8641593e-06
1.8182732e-09
-1.9293402e-06
1.5232049e-09
-1.3400274e-06
1.1657807e-09
-9.3880159e-07
8.4273913e-10
-6.5004684e-07
5.9514391e-10
-4.4676486e-07
4.1325669e-10
-3.0702167e-07
2.8284318e-10
-2.1052655e-07
1.9097752e-10
-1.4387465e-07
1.2732925e-10
-9.7918547e-08
8.3728907e-11
-6.6317543e-08
5.4313172e-11
-4.4666053e-08
3.4630501e-11
-2.9885839e-08
2.1654224e-11
-1.9829303e-08
1.3171662e-11
-1.3011335e-08
7.7394532e-12
-8.4097564e-09
4.316908e-12
-5.3222662e-09
2.2315622e-12
-3.2666761e-09
1.0206496e-12
-1.9121321e-09
3.7186583e-13
-1.0318526e-09
7.8125407e-14
-4.7063469e-10
-1.2250228e-10
-6.6899831e-09
-3.9714179e-05
-1.2167856e-08
-3.2976691e-05
-1.5483661e-08
-2.6754173e-05
-1.6690027e-08
-2.1379285e-05
-1.5036836e-08
-1.657173e-05
-9.0253386e-09
-1.1760127e-05
-2.3082776e-09
-7.3277072e-06
8.8539267e-10
-4.4595413e-06
1.8288287e-09
-2.8651028e-06
1.829008e-09
-1.9293403e-06
1.5326893e-09
-1.3397311e-06
1.173462e-09
-9.384423e-07
8.4860264e-10
-6.4972202e-07
5.9949554e-10
-4.4651569e-07
4.1642854e-10
-3.0683863e-07
2.8509872e-10
-2.1039516e-07
1.9255307e-10
-1.4378212e-07
1.2840612e-10
-9.785435e-08
8.4456542e-11
-6.6273601e-08
5.4794493e-11
-4.4636357e-08
3.4950691e-11
-2.9865998e-08
2.1863089e-11
-1.9816196e-08
1.3312858e-11
-1.3002785e-08
7.8324379e-12
-8.4042655e-09
4.3794043e-12
-5.3188129e-09
2.2772063e-12
-3.2645681e-09
1.0446915e-12
-1.9109033e-09
3.8148617e-13
-1.031191e-09
7.8665119e-14
-4.7033304e-10
-1.2242361e-10
-6.7164679e-09
-3.9707462e-05
-1.2207373e-08
-3.29712e-05
-1.5527072e-08
-2.6750854e-05
-1.6732986e-08
-2.1378079e-05
-1.5079877e-08
-1.6573383e-05
-9.066517e-09
-1.1766141e-05
-2.3279017e-09
-7.3344459e-06
8.8406587e-10
-4.4627532e-06
1.8340367e-09
-2.8660528e-06
1.8356186e-09
-1.9293418e-06
1.5386082e-09
-1.3394341e-06
1.1781626e-09
-9.3808179e-07
8.5209225e-10
-6.4939598e-07
6.0201378e-10
-4.4626555e-07
4.182011e-10
-3.0665484e-07
2.8630445e-10
-2.102632e-07
1.9334102e-10
-1.4368917e-07
1.2889706e-10
-9.778985e-08
8.4742032e-11
-6.6229449e-08
5.4947739e-11
-4.4606518e-08
3.5015288e-11
-2.9846063e-08
2.1879215e-11
-1.9803027e-08
1.3296425e-11
-1.2994196e-08
7.804426e-12
-8.3987514e-09
4.3472634e-12
-5.3153458e-09
2.2433503e-12
-3.2624521e-09
1.0239512e-12
-1.90967e-09
3.7267864e-13
-1.0305271e-09
7.8931254e-14
-4.7003034e-10
-1.2234468e-10
-6.739475e-09
-3.9700722e-05
-1.2243254e-08
-3.2965696e-05
-1.5568751e-08
-2.6747528e-05
-1.6776554e-08
-2.1376871e-05
-1.5124833e-08
-1.6575035e-05
-9.1106238e-09
-1.1772155e-05
-2.3503797e-09
-7.3412061e-06
8.796974e-10
-4.4659833e-06
1.8364676e-09
-2.8670096e-06
1.8397086e-09
-1.929345e-06
1.5424502e-09
-1.3391369e-06
1.1811866e-09
-9.3772048e-07
8.5430137e-10
-6.4906913e-07
6.0360948e-10
-4.460148e-07
4.1934704e-10
-3.064706e-07
2.8711055e-10
-2.1013091e-07
1.9390663e-10
-1.4359597e-07
1.2928559e-10
-9.7725181e-08
8.5012743e-11
-6.618518e-08
5.5132187e-11
-4.4576603e-08
3.5149398e-11
-2.9826079e-08
2.1974301e-11
-1.9789829e-08
1.3372416e-11
-1.298559e-08
7.8622369e-12
-8.3932268e-09
4.3929151e-12
-5.3118728e-09
2.2819991e-12
-3.2603329e-09
1.0460837e-12
-1.9084351e-09
3.8179952e-13
-1.0298624e-09
7.903808e-14
-4.6972727e-10
-1.2226564e-10
-6.7602192e-09
-3.9693962e-05
-1.2276916e-08
-3.296018e-05
-1.5609474e-08
-2.6744196e-05
-1.6820762e-08
-2.137566e-05
-1.5171718e-08
-1.6576684e-05
-9.1555785e-09
-1.1778171e-05
-2.374115e-09
-7.3479876e-06
8.7393899e-10
-4.4692313e-06
1.8371845e-09
-2.8679729e-06
1.842309e-09
-1.9293501e-06
1.5450028e-09
-1.3388396e-06
1.1831258e-09
-9.3735855e-07
8.556403e-10
-6.4874167e-07
6.0452709e-10
-4.4576364e-07
4.1997156e-10
-3.0628606e-07
2.8751777e-10
-2.099984e-07
1.941648e-10
-1.4350263e-07
1.2943539e-10
-9.7660407e-08
8.5095012e-11
-6.6140843e-08
5.516946e-11
-4.4546644e-08
3.516002e-11
-2.9806068e-08
2.1969338e-11
-1.9776616e-08
1.3357457e-11
-1.2976976e-08
7.8436163e-12
-8.3876989e-09
4.3741631e-12
-5.3083986e-09
2.2612279e-12
-3.2582134e-09
1.0343802e-12
-1.9072001e-09
3.7692977e-13
-1.0291978e-09
7.9011281e-14
-4.6942428e-10
-1.2218663e-10
-6.7794138e-09
-3.9687183e-05
-1.2309086e-08
-3.295465e-05
-1.5649398e-08
-2.6740855e-05
-1.6864861e-08
-2.1374445e-05
-1.5218677e-08
-1.657833e-05
-9.202079e-09
-1.1784188e-05
-2.3992284e-09
-7.3547905e-06
8.6666342e-10
-4.4724971e-06
1.8368862e-09
-2.8689431e-06
1.8441387e-09
-1.9293573e-06
1.5468427e-09
-1.3385424e-06
1.1844618e-09
-9.3699613e-07
8.5652846e-10
-6.4841376e-07
6.0513087e-10
-4.4551219e-07
4.2040184e-10
-3.0610135e-07
2.8782376e-10
-2.0986578e-07
1.9438781e-10
-1.434092e-07
1.2959324e-10
-9.7595575e-08
8.5212251e-11
-6.6096465e-08
5.5252895e-11
-4.4516659e-08
3.5226545e-11
-2.9786042e-08
2.2018493e-11
-1.9763393e-08
1.3401351e-11
-1.2968357e-08
7.8781038e-12
-8.3821684e-09
4.403507e-12
-5.3049233e-09
2.2876022e-12
-3.2560935e-09
1.0495016e-12
-1.9059652e-09
3.8319794e-13
-1.0285332e-09
7.9005047e-14
-4.6912132e-10
-1.2210762e-10
-6.7976165e-09
-3.9680385e-05
-1.2340311e-08
-3.2949107e-05
-1.5688754e-08
-2.6737507e-05
-1.6908856e-08
-2.1373225e-05
-1.52654e-08
-1.6579974e-05
-9.2493855e-09
-1.1790204e-05
-2.4249846e-09
-7.3616149e-06
8.5889274e-10
-4.475781e-06
1.8358938e-09
-2.8699201e-06
1.8452744e-09
-1.9293667e-06
1.5480435e-09
-1.3382452e-06
1.1852284e-09
-9.3663327e-07
8.5692017e-10
-6.4808546e-07
6.0530874e-10
-4.4526053e-07
4.2045976e-10
-3.0591651e-07
2.8780962e-10
-2.0973307e-07
1.9432706e-10
-1.4331572e-07
1.2951075e-10
-9.7530707e-08
8.5114504e-11
-6.6052064e-08
5.5158734e-11
-4.448666e-08
3.5130776e-11
-2.9766008e-08
2.1936921e-11
-1.9750166e-08
1.3323603e-11
-1.2959736e-08
7.8154175e-12
-8.3766375e-09
4.3510285e-12
-5.301448e-09
2.2440108e-12
-3.253974e-09
1.0237949e-12
-1.9047305e-09
3.7253398e-13
-1.0278689e-09
7.897233e-14
-4.6881846e-10
-1.2202865e-10
-6.8152666e-09
-3.967357e-05
-1.2370909e-08
-3.2943552e-05
-1.5727537e-08
-2.673415e-05
-1.6952571e-08
-2.1372e-05
-1.5313277e-08
-1.6581613e-05
-9.2958952e-09
-1.1796221e-05
-2.4508105e-09
-7.36846e-06
8.5078229e-10
-4.4790826e-06
1.8347366e-09
-2.8709041e-06
1.8460784e-09
-1.929378e-06
1.5489905e-09
-1.3379481e-06
1.1858203e-09
-9.3627006e-07
8.5721482e-10
-6.4775687e-07
6.054652e-10
-4.4500874e-07
4.2056359e-10
-3.0573162e-07
2.8788502e-10
-2.0960035e-07
1.9439564e-10
-1.4322223e-07
1.2957073e-10
-9.7465839e-08
8.5174508e-11
-6.6007666e-08
5.5211418e-11
-4.4456664e-08
3.5185613e-11
-2.9745976e-08
2.1984465e-11
-1.9736943e-08
1.3373207e-11
-1.2951119e-08
7.858465e-12
-8.3711088e-09
4.3895261e-12
-5.2979746e-09
2.2791994e-12
-3.2518557e-09
1.0446987e-12
-1.9034966e-09
3.8124929e-13
-1.0272049e-09
7.8924888e-14
-4.6851581e-10
-1.2194973e-10
-6.8325047e-09
-3.9666737e-05
-1.2401031e-08
-3.2937983e-05
-1.5765606e-08
-2.6730786e-05
-1.6995363e-08
-2.137077e-05
-1.5360302e-08
-1.6583248e-05
-9.343501e-09
-1.1802238e-05
-2.4774505e-09
-7.375326e-06
8.4211256e-10
-4.4824021e-06
1.8333076e-09
-2.8718953e-06
1.8466485e-09
-1.9293913e-06
1.5496912e-09
-1.3376512e-06
1.1862026e-09
-9.3590654e-07
8.5732731e-10
-6.4742801e-07
6.054627e-10
-4.4475683e-07
4.205233e-10
-3.0554668e-07
2.8782742e-10
-2.0946761e-07
1.9433828e-10
-1.4312874e-07
1.2951366e-10
-9.7400976e-08
8.5125007e-11
-6.5963274e-08
5.5166641e-11
-4.4426675e-08
3.514632e-11
-2.9725952e-08
2.1949844e-11
-1.9723725e-08
1.3340647e-11
-1.2942506e-08
7.8295356e-12
-8.365584e-09
4.3646423e-12
-5.2945039e-09
2.254756e-12
-3.2497393e-09
1.0310792e-12
-1.9022639e-09
3.7564018e-13
-1.0265417e-09
7.8834084e-14
-4.682135e-10
-1.2187089e-10
-6.8494583e-09
-3.9659888e-05
-1.2430777e-08
-3.2932402e-05
-1.5803349e-08
-2.6727413e-05
-1.7037879e-08
-2.1369535e-05
-1.540697e-08
-1.6584879e-05
-9.391159e-09
-1.1808254e-05
-2.5038885e-09
-7.3822133e-06
8.3360826e-10
-4.4857396e-06
1.8317131e-09
-2.8728934e-06
1.847094e-09
-1.9294066e-06
1.5502712e-09
-1.3373543e-06
1.1864873e-09
-9.3554272e-07
8.573871e-10
-6.4709892e-07
6.0545028e-10
-4.4450486e-07
4.2051151e-10
-3.0536175e-07
2.8782787e-10
-2.0933489e-07
1.943583e-10
-1.4303528e-07
1.2954144e-10
-9.7336129e-08
8.5162728e-11
-6.5918895e-08
5.5203507e-11
-4.4396696e-08
3.5187759e-11
-2.9705934e-08
2.19863e-11
-1.9710513e-08
1.3379919e-11
-1.2933896e-08
7.8633539e-12
-8.3600622e-09
4.3954402e-12
-5.2910353e-09
2.2835898e-12
-3.2476243e-09
1.0479195e-12
-1.9010322e-09
3.8265955e-13
-1.0258791e-09
7.8765255e-14
-4.6791143e-10
-1.2179213e-10
-6.8662093e-09
-3.9653021e-05
-1.2460224e-08
-3.2926808e-05
-1.584058e-08
-2.6724033e-05
-1.7080221e-08
-2.1368296e-05
-1.5454285e-08
-1.6586505e-05
-9.4376994e-09
-1.181427e-05
-2.5302141e-09
-7.3891208e-06
8.2495652e-10
-4.4890947e-06
1.830276e-09
-2.8738988e-06
1.8474587e-09
-1.9294238e-06
1.5507338e-09
-1.3370576e-06
1.1866e-09
-9.3517856e-07
8.5724938e-10
-6.4676958e-07
6.0523324e-10
-4.4425281e-07
4.2028337e-10
-3.051768e-07
2.876148e-10
-2.0920218e-07
1.9416278e-10
-1.4294182e-07
1.293709e-10
-9.7271293e-08
8.5008218e-11
-6.5874525e-08
5.5074495e-11
-4.4366724e-08
3.5070287e-11
-2.9685922e-08
2.1891996e-11
-1.9697305e-08
1.3294037e-11
-1.2925291e-08
7.7956579e-12
-8.3545427e-09
4.3395838e-12
-5.2875685e-09
2.2374396e-12
-3.2455106e-09
1.0208778e-12
-1.8998012e-09
3.7147032e-13
-1.0252168e-09
7.8710544e-14
-4.6760958e-10
-1.2171342e-10
-6.8828795e-09
-3.9646138e-05
-1.2489436e-08
-3.2921201e-05
-1.587708e-08
-2.6720645e-05
-1.7121912e-08
-2.1367051e-05
-1.5499679e-08
-1.6588127e-05
-9.4854179e-09
-1.1820284e-05
-2.5571761e-09
-7.3960491e-06
8.1603548e-10
-4.4924679e-06
1.8284987e-09
-2.8749112e-06
1.8476063e-09
-1.9294429e-06
1.5510722e-09
-1.3367611e-06
1.1866589e-09
-9.3481412e-07
8.571162e-10
-6.4644005e-07
6.0507374e-10
-4.4400073e-07
4.2016248e-10
-3.0499189e-07
2.8753994e-10
-2.0906952e-07
1.941346e-10
-1.4284841e-07
1.2937178e-10
-9.7206495e-08
8.5034911e-11
-6.5830185e-08
5.5110323e-11
-4.4336773e-08
3.5118182e-11
-2.9665925e-08
2.1937739e-11
-1.9684107e-08
1.3344891e-11
-1.2916692e-08
7.8408662e-12
-8.3490277e-09
4.3805644e-12
-5.2841046e-09
2.2751775e-12
-3.2433986e-09
1.0432784e-12
-1.8985713e-09
3.8081565e-13
-1.0245552e-09
7.8645454e-14
-4.6730798e-10
-1.2163477e-10
-6.8994683e-09
-3.9639239e-05
-1.2518423e-08
-3.2915582e-05
-1.5913263e-08
-2.671725e-05
-1.71636e-08
-2.13658e-05
-1.5545544e-08
-1.6589745e-05
-9.5322494e-09
-1.1826298e-05
-2.5836899e-09
-7.4029976e-06
8.0732849e-10
-4.4958589e-06
1.8268636e-09
-2.8759308e-06
1.8478838e-09
-1.9294639e-06
1.5514407e-09
-1.3364647e-06
1.1867191e-09
-9.3444937e-07
8.5696084e-10
-6.461103e-07
6.0487074e-10
-4.4374861e-07
4.1997673e-10
-3.04807e-07
2.87383e-10
-2.0893689e-07
1.940104e-10
-1.4275504e-07
1.2927146e-10
-9.7141725e-08
8.4956673e-11
-6.5785866e-08
5.5047395e-11
-4.4306839e-08
3.5066804e-11
-2.964594e-08
2.1895644e-11
-1.9670918e-08
1.3306948e-11
-1.2908099e-08
7.8083162e-12
-8.3435175e-09
4.3529731e-12
-5.280644e-09
2.2487617e-12
-3.2412888e-09
1.0285142e-12
-1.8973427e-09
3.7473979e-13
-1.0238943e-09
7.8551654e-14
-4.6700673e-10
-1.2155622e-10
-6.9159043e-09
-3.9632323e-05
-1.2547069e-08
-3.2909951e-05
-1.5948948e-08
-2.6713849e-05
-1.7204746e-08
-2.1364545e-05
-1.5591986e-08
-1.6591358e-05
-9.5786272e-09
-1.1832311e-05
-2.6101925e-09
-7.4099661e-06
7.9855777e-10
-4.4992677e-06
1.8253678e-09
-2.8769576e-06
1.848174e-09
-1.9294867e-06
1.551799e-09
-1.3361683e-06
1.1867984e-09
-9.3408434e-07
8.5684775e-10
-6.4578035e-07
6.0473158e-10
-4.4349647e-07
4.1987839e-10
-3.0462216e-07
2.8733017e-10
-2.0880431e-07
1.9399982e-10
-1.4266171e-07
1.2928372e-10
-9.7076986e-08
8.4986708e-11
-6.5741569e-08
5.5081326e-11
-4.427692e-08
3.5107512e-11
-2.9625965e-08
2.1932227e-11
-1.9657736e-08
1.3346691e-11
-1.2899512e-08
7.8424346e-12
-8.3380104e-09
4.3840737e-12
-5.2771856e-09
2.2775167e-12
-3.2391805e-09
1.0453694e-12
-1.896115e-09
3.8175961e-13
-1.0232339e-09
7.8482813e-14
-4.6670573e-10
-1.2147774e-10
-6.9321562e-09
-3.9625391e-05
-1.257538e-08
-3.2904308e-05
-1.5984018e-08
-2.671044e-05
-1.7245107e-08
-2.1363284e-05
-1.5636833e-08
-1.6592966e-05
-9.6264081e-09
-1.1838321e-05
-2.6372104e-09
-7.4169553e-06
7.8964565e-10
-4.5026945e-06
1.8234623e-09
-2.8779914e-06
1.8481201e-09
-1.9295113e-06
1.5519144e-09
-1.3358721e-06
1.1866388e-09
-9.3371904e-07
8.564917e-10
-6.4545021e-07
6.0434916e-10
-4.4324429e-07
4.1953074e-10
-3.0443734e-07
2.8703682e-10
-2.0867178e-07
1.9374926e-10
-1.4256842e-07
1.2907948e-10
-9.7012273e-08
8.4808703e-11
-6.5697289e-08
5.49384e-11
-4.424701e-08
3.4979072e-11
-2.9605996e-08
2.1831852e-11
-1.9644558e-08
1.3255086e-11
-1.2890926e-08
7.7713113e-12
-8.3325048e-09
4.3250214e-12
-5.273728e-09
2.2291547e-12
-3.2370726e-09
1.0168171e-12
-1.8948877e-09
3.6992389e-13
-1.0225736e-09
7.8463119e-14
-4.6640481e-10
-1.2139927e-10
-6.9482583e-09
-3.9618443e-05
-1.2603323e-08
-3.2898653e-05
-1.6018873e-08
-2.6707024e-05
-1.7285659e-08
-2.1362017e-05
-1.5682525e-08
-1.659457e-05
-9.6728009e-09
-1.1844331e-05
-2.6638908e-09
-7.4239642e-06
7.8080136e-10
-4.5061392e-06
1.8219558e-09
-2.8790326e-06
1.848438e-09
-1.9295378e-06
1.5523005e-09
-1.335576e-06
1.1866899e-09
-9.333534e-07
8.5634587e-10
-6.4511987e-07
6.0418164e-10
-4.429921e-07
4.1941276e-10
-3.0425257e-07
2.8697692e-10
-2.0853931e-07
1.9374115e-10
-1.4247518e-07
1.2910308e-10
-9.6947602e-08
8.4857481e-11
-6.5653038e-08
5.4993452e-11
-4.4217121e-08
3.504348e-11
-2.958604e-08
2.1890194e-11
-1.9631387e-08
1.3315746e-11
-1.2882345e-08
7.8234544e-12
-8.3270016e-09
4.3709157e-12
-5.2702718e-09
2.2703361e-12
-3.2349655e-09
1.0411157e-12
-1.8936607e-09
3.8003106e-13
-1.0219136e-09
7.8448158e-14
-4.6610396e-10
-1.2132082e-10
-6.9642447e-09
-3.9611478e-05
-1.2630801e-08
-3.2892986e-05
-1.6053417e-08
-2.6703602e-05
-1.7325727e-08
-2.1360744e-05
-1.5727433e-08
-1.6596168e-05
-9.7194682e-09
-1.1850339e-05
-2.6907014e-09
-7.430993e-06
7.7191895e-10
-4.5096018e-06
1.8202672e-09
-2.880081e-06
1.8486009e-09
-1.9295661e-06
1.5525151e-09
-1.3352799e-06
1.1865916e-09
-9.3298746e-07
8.5606175e-10
-6.4478935e-07
6.0388014e-10
-4.4273989e-07
4.1915593e-10
-3.0406784e-07
2.8677325e-10
-2.0840689e-07
1.9358553e-10
-1.4238199e-07
1.2898348e-10
-9.688297e-08
8.4767618e-11
-6.5608817e-08
5.4923117e-11
-4.4187252e-08
3.4987545e-11
-2.9566099e-08
2.1844993e-11
-1.9618227e-08
1.3275338e-11
-1.2873771e-08
7.7888915e-12
-8.3215036e-09
4.3415915e-12
-5.2668189e-09
2.2421756e-12
-3.2328605e-09
1.0253667e-12
-1.892435e-09
3.735441e-13
-1.0212542e-09
7.8361588e-14
-4.6580343e-10
-1.2124246e-10
-6.9801016e-09
-3.9604498e-05
-1.2657971e-08
-3.2887308e-05
-1.6087803e-08
-2.6700172e-05
-1.7365738e-08
-2.1359467e-05
-1.5771677e-08
-1.6597762e-05
-9.7663861e-09
-1.1856344e-05
-2.7175031e-09
-7.4380418e-06
7.6324691e-10
-4.5130825e-06
1.8186603e-09
-2.8811364e-06
1.8487234e-09
-1.9295961e-06
1.5527199e-09
-1.3349839e-06
1.1865198e-09
-9.3262124e-07
8.5583177e-10
-6.4445866e-07
6.0365693e-10
-4.4248769e-07
4.1899933e-10
-3.0388319e-07
2.8668385e-10
-2.0827455e-07
1.9355325e-10
-1.4228885e-07
1.2898521e-10
-9.6818382e-08
8.4794955e-11
-6.5564627e-08
5.4957908e-11
-4.4157403e-08
3.5031497e-11
-2.9546171e-08
2.1885321e-11
-1.9605076e-08
1.3319244e-11
-1.2865203e-08
7.8268135e-12
-8.3160092e-09
4.3759645e-12
-5.2633684e-09
2.2739721e-12
-3.230757e-09
1.0439472e-12
-1.8912102e-09
3.8127996e-13
-1.0205954e-09
7.8290244e-14
-4.6550315e-10
-1.2116417e-10
-6.9957701e-09
-3.9597502e-05
-1.26848e-08
-3.2881619e-05
-1.6122125e-08
-2.6696735e-05
-1.7405718e-08
-2.1358183e-05
-1.5816829e-08
-1.6599351e-05
-9.8122334e-09
-1.1862349e-05
-2.744035e-09
-7.44511e-06
7.5441315e-10
-4.5165809e-06
1.817144e-09
-2.8821991e-06
1.8489177e-09
-1.9296279e-06
1.5529465e-09
-1.3346879e-06
1.1864163e-09
-9.3225468e-07
8.5550484e-10
-6.4412775e-07
6.0329442e-10
-4.4223544e-07
4.1866561e-10
-3.0369856e-07
2.8640357e-10
-2.0814225e-07
1.9331424e-10
-1.4219576e-07
1.2879235e-10
-9.6753819e-08
8.4627468e-11
-6.5520451e-08
5.4823182e-11
-4.4127562e-08
3.4909636e-11
-2.9526247e-08
2.1789063e-11
-1.9591926e-08
1.3230401e-11
-1.2856635e-08
7.7568019e-12
-8.3105145e-09
4.3173056e-12
-5.2599175e-09
2.2250508e-12
-3.2286532e-09
1.0150402e-12
-1.8899851e-09
3.6928482e-13
-1.0199364e-09
7.8317814e-14
-4.6520279e-10
-1.2108585e-10
-7.0112661e-09
-3.9590491e-05
-1.2711207e-08
-3.2875919e-05
-1.6156227e-08
-2.669329e-05
-1.7444837e-08
-2.1356894e-05
-1.5860791e-08
-1.6600935e-05
-9.8592942e-09
-1.186835e-05
-2.7711821e-09
-7.4521982e-06
7.4553634e-10
-4.5200976e-06
1.8152477e-09
-2.8832688e-06
1.8489374e-09
-1.9296615e-06
1.5530723e-09
-1.3343921e-06
1.1862725e-09
-9.3188786e-07
8.5520429e-10
-6.4379669e-07
6.0300962e-10
-4.4198322e-07
4.1846255e-10
-3.0351401e-07
2.8628431e-10
-2.0801004e-07
1.9326669e-10
-1.4210273e-07
1.2879157e-10
-9.6689314e-08
8.4661886e-11
-6.5476315e-08
5.4870517e-11
-4.4097748e-08
3.4970294e-11
-2.950634e-08
2.1845907e-11
-1.9578786e-08
1.3290979e-11
-1.2848074e-08
7.8094347e-12
-8.3050233e-09
4.3639201e-12
-5.2564684e-09
2.2670015e-12
-3.2265503e-09
1.0398232e-12
-1.8887605e-09
3.7959292e-13
-1.0192776e-09
7.8293695e-14
-4.6490252e-10
-1.2100756e-10
-7.0265706e-09
-3.9583464e-05
-1.2737403e-08
-3.2870208e-05
-1.6190269e-08
-2.6689837e-05
-1.7483904e-08
-2.1355601e-05
-1.5905218e-08
-1.6602514e-05
-9.9057738e-09
-1.187435e-05
-2.79816e-09
-7.4593058e-06
7.3652854e-10
-4.5236323e-06
1.8137166e-09
-2.884346e-06
1.8490737e-09
-1.9296969e-06
1.5532135e-09
-1.3340962e-06
1.1860859e-09
-9.3152071e-07
8.5483486e-10
-6.4346544e-07
6.0263564e-10
-4.41731e-07
4.1814508e-10
-3.0332951e-07
2.8603059e-10
-2.078779e-07
1.9307106e-10
-1.4200977e-07
1.2864059e-10
-9.6624855e-08
8.454672e-11
-6.5432214e-08
5.4781048e-11
-4.4067959e-08
3.4899281e-11
-2.9486452e-08
2.1789822e-11
-1.956566e-08
1.3242443e-11
-1.2839521e-08
7.7692072e-12
-8.2995385e-09
4.3305896e-12
-5.2530235e-09
2.2362619e-12
-3.2244501e-09
1.0225331e-12
-1.8875376e-09
3.724831e-13
-1.0186197e-09
7.8188777e-14
-4.6460266e-10
-1.2092937e-10
-7.0416668e-09
-3.9576423e-05
-1.2763467e-08
-3.2864486e-05
-1.6224236e-08
-2.6686376e-05
-1.752273e-08
-2.1354302e-05
-1.5949481e-08
-1.6604087e-05
-9.9521212e-09
-1.1880347e-05
-2.8250947e-09
-7.4664328e-06
7.2768269e-10
-4.5271851e-06
1.8120716e-09
-2.8854304e-06
1.8491507e-09
-1.9297339e-06
1.5533407e-09
-1.3338004e-06
1.1859132e-09
-9.3115326e-07
8.5451293e-10
-6.4313404e-07
6.0234397e-10
-4.4147881e-07
4.1793935e-10
-3.0314511e-07
2.8590821e-10
-2.0774584e-07
1.9301919e-10
-1.4191688e-07
1.2863127e-10
-9.6560447e-08
8.4567947e-11
-6.5388147e-08
5.4813048e-11
-4.4038192e-08
3.4941896e-11
-2.9466577e-08
2.1829476e-11
-1.9552542e-08
1.3286156e-11
-1.2830974e-08
7.8070378e-12
-8.2940572e-09
4.3649831e-12
-5.249581e-09
2.2677836e-12
-3.2223513e-09
1.0410881e-12
-1.8863155e-09
3.8020464e-13
-1.0179623e-09
7.8121872e-14
-4.6430303e-10
-1.2085125e-10
-7.0565755e-09
-3.9569366e-05
-1.2789358e-08
-3.2858754e-05
-1.625797e-08
-2.6682907e-05
-1.7561366e-08
-2.1352999e-05
-1.5992995e-08
-1.6605655e-05
-9.9989338e-09
-1.1886341e-05
-2.8522369e-09
-7.4735795e-06
7.1885424e-10
-4.5307562e-06
1.8102344e-09
-2.8865218e-06
1.8491387e-09
-1.9297728e-06
1.5533682e-09
-1.3335047e-06
1.1856005e-09
-9.3078547e-07
8.5400748e-10
-6.4280244e-07
6.0183775e-10
-4.412266e-07
4.1748891e-10
-3.0296075e-07
2.8553431e-10
-2.0761384e-07
1.9270522e-10
-1.4182403e-07
1.2838046e-10
-9.6496074e-08
8.4353702e-11
-6.5344102e-08
5.4643607e-11
-4.4008438e-08
3.4791716e-11
-2.944671e-08
2.1712347e-11
-1.9539428e-08
1.3180145e-11
-1.2822429e-08
7.7242576e-12
-8.2885762e-09
4.2963785e-12
-5.2461383e-09
2.2115432e-12
-3.2202523e-09
1.0076978e-12
-1.8850931e-09
3.6635393e-13
-1.0173047e-09
7.8152381e-14
-4.6400331e-10
-1.207731e-10
-7.0713104e-09
-3.9562295e-05
-1.2815025e-08
-3.285301e-05
-1.6291446e-08
-2.6679431e-05
-1.7600245e-08
-2.135169e-05
-1.6036939e-08
-1.6607218e-05
-1.0044727e-08
-1.1892334e-05
-2.8791486e-09
-7.4807451e-06
7.0991017e-10
-4.5343452e-06
1.8087607e-09
-2.8876206e-06
1.8493102e-09
-1.9298134e-06
1.5535337e-09
-1.3332089e-06
1.1854508e-09
-9.3041737e-07
8.5368919e-10
-6.4247068e-07
6.0153848e-10
-4.4097442e-07
4.1727436e-10
-3.0277648e-07
2.8540581e-10
-2.0748194e-07
1.9265391e-10
-1.4173127e-07
1.2837942e-10
-9.6431765e-08
8.439113e-11
-6.5300103e-08
5.4695682e-11
-4.3978715e-08
3.4858739e-11
-2.9426862e-08
2.1776018e-11
-1.9526325e-08
1.3248254e-11
-1.2813891e-08
7.7843152e-12
-8.2830994e-09
4.3496633e-12
-5.2426981e-09
2.259811e-12
-3.2181546e-09
1.036327e-12