/*--------------------------------*- C++ -*----------------------------------*\
| =========                 |                                                 |
| \\      /  F ield         | OpenFOAM: The Open Source CFD Toolbox           |
|  \\    /   O peration     | Version:  v2012                                 |
|   \\  /    A nd           | Website:  www.openfoam.com                      |
|    \\/     M anipulation  |                                                 |
\*---------------------------------------------------------------------------*/
FoamFile
{
    version     2.0;
    format      ascii;
    class       volScalarField;
    location    "350";
    object      rho;
}
// * * * * * * * * * * * * * * * * * * * * * * * * * * * * * * * * * * * * * //

dimensions      [1 -3 0 0 0 0 0];


internalField   nonuniform List<scalar> 
24000
(
22.649624
22.411955
21.62369
20.596148
18.966337
15.799405
11.357327
7.8919911
5.7527028
4.3990949
3.5156625
2.8976113
2.4416229
2.1308318
1.9253162
1.7832445
1.6810793
1.6052797
1.5476494
1.5030107
1.4679092
1.4399324
1.4173627
1.3989562
1.3837964
1.371196
1.3606317
1.3517001
1.3440857
1.3375402
22.651453
22.413837
21.626151
20.599365
18.970985
15.811254
11.37914
7.9110168
5.7662331
4.4087707
3.5227308
2.9030482
2.4457521
2.1338713
1.92765
1.7851154
1.6826348
1.6066118
1.5488191
1.5040622
1.4688755
1.4408376
1.4182242
1.399786
1.3846025
1.3719838
1.3614049
1.3524609
1.3448359
1.3382808
22.653342
22.415726
21.628685
20.603018
18.977799
15.826236
11.397713
7.9237692
5.7736853
4.4135867
3.5260139
2.9054752
2.4476733
2.1353635
1.9288529
1.7861266
1.683519
1.6074019
1.5495338
1.5047139
1.4694757
1.4413973
1.418753
1.400292
1.3850917
1.3724604
1.3618717
1.3529199
1.3452882
1.3387273
22.655235
22.417678
21.631438
20.607089
18.985048
15.840465
11.41426
7.9344704
5.7794155
4.4169932
3.5281444
2.9068647
2.4486449
2.1360303
1.9293161
1.7864243
1.683685
1.6074748
1.5495473
1.5046938
1.4694388
1.4413531
1.4187062
1.4002444
1.3850438
1.3724126
1.361824
1.3528724
1.3452412
1.3386809
22.657132
22.419669
21.634292
20.611316
18.9924
15.854295
11.429971
7.9443002
5.7844753
4.419888
3.5298295
2.9078993
2.4493749
2.136594
1.9297662
1.7867991
1.6840006
1.6077466
1.5497863
1.5049076
1.4696331
1.4415324
1.418874
1.4004035
1.3851965
1.3725603
1.361968
1.3530135
1.3453799
1.3388179
22.659031
22.42169
21.637207
20.61561
18.999727
15.86785
11.445292
7.9537831
5.7894549
4.4225374
3.5312623
2.9087006
2.4498831
2.1369674
1.9300487
1.7870171
1.6841724
1.6078854
1.5499021
1.5050077
1.4697225
1.4416145
1.418951
1.4004767
1.3852669
1.3726285
1.3620345
1.3530787
1.3454441
1.3388812
22.660932
22.423731
21.640154
20.619929
19.007021
15.881269
11.460461
7.9631948
5.7943851
4.4250463
3.5325626
2.9093848
2.4502866
2.1372633
1.9302788
1.7872029
1.6843276
1.6080189
1.5500199
1.5051141
1.4698204
1.4417059
1.4190374
1.4005593
1.3853465
1.3727057
1.3621099
1.3531526
1.3455168
1.3389531
22.662833
22.425785
21.643118
20.624258
19.014297
15.894618
11.475578
7.972603
5.7992871
4.4274778
3.5337925
2.9100052
2.4506312
2.1375131
1.9304742
1.7873619
1.6844613
1.6081343
1.5501221
1.5052066
1.4699058
1.441786
1.4191133
1.400632
1.3854167
1.372774
1.3621765
1.353218
1.3455812
1.3390167
22.664733
22.427846
21.646092
20.628592
19.021561
15.90794
11.49069
7.9820343
5.8041819
4.4298713
3.5349862
2.9105923
2.4509451
2.1377393
1.9306525
1.7875086
1.6845861
1.6082431
1.5502194
1.5052955
1.4699883
1.4418635
1.4191871
1.4007028
1.3854851
1.3728405
1.3622416
1.3532818
1.3456441
1.3390788
22.666633
22.429913
21.649071
20.632931
19.028821
15.921254
11.50582
7.9914958
5.8090777
4.4322483
3.5361613
2.9111613
2.4512417
2.1379523
1.9308212
1.7876483
1.6847057
1.6083482
1.5503138
1.505382
1.4700689
1.4419396
1.4192596
1.4007725
1.3855526
1.3729061
1.3623058
1.3533448
1.3457062
1.3391401
22.668532
22.431981
21.652053
20.637274
19.036082
15.934564
11.520981
8.0009951
5.813984
4.4346195
3.5373276
2.9117203
2.451529
2.1381583
1.9309849
1.7877846
1.6848229
1.6084516
1.5504071
1.5054678
1.4701491
1.4420154
1.4193319
1.4008421
1.38562
1.3729718
1.36237
1.3534079
1.3457683
1.3392015
22.670429
22.434051
21.655038
20.64162
19.043345
15.947881
11.536179
8.0105319
5.818905
4.4369913
3.53849
2.912274
2.4518111
2.1383606
1.9311463
1.7879194
1.6849392
1.6085545
1.5505002
1.5055537
1.4702295
1.4420915
1.4194046
1.4009121
1.3856878
1.3730379
1.3624347
1.3534715
1.345831
1.3392633
22.672325
22.436121
21.658024
20.645971
19.050612
15.96121
11.55142
8.02011
5.8238404
4.4393673
3.5396513
2.9128248
2.4520905
2.1385612
1.9313067
1.7880537
1.6850555
1.6086576
1.5505937
1.50564
1.4703103
1.4421681
1.4194779
1.4009828
1.3857563
1.3731047
1.3625001
1.3535357
1.3458943
1.3393259
22.67422
22.438191
21.661013
20.650325
19.057884
15.974544
11.566705
8.0297276
5.8287956
4.4417495
3.5408131
2.9133743
2.4523685
2.1387611
1.9314669
1.7881882
1.6851721
1.6087613
1.5506879
1.505727
1.4703921
1.4422456
1.4195522
1.4010544
1.3858258
1.3731724
1.3625664
1.3536008
1.3459585
1.3393893
22.676113
22.440261
21.664003
20.654683
19.06516
15.987889
11.582033
8.0393873
5.8337685
4.4441383
3.5419764
2.9139234
2.4526459
2.1389611
1.9316275
1.7883232
1.6852894
1.6088658
1.5507828
1.5058149
1.4704746
1.442324
1.4196272
1.4011268
1.3858961
1.373241
1.3626335
1.3536668
1.3460235
1.3394535
22.678005
22.44233
21.666995
20.659044
19.072441
16.001248
11.597407
8.0490875
5.83876
4.4465348
3.5431415
2.9144725
2.4529232
2.1391613
1.9317887
1.7884589
1.6854075
1.608971
1.5508786
1.5059037
1.470558
1.4424033
1.4197032
1.4012001
1.3859673
1.3733104
1.3627016
1.3537337
1.3460894
1.3395186
22.679896
22.444398
21.669988
20.663409
19.079725
16.014614
11.612827
8.0588296
5.8437723
4.4489395
3.5443086
2.9150216
2.4532006
2.1393621
1.9319505
1.7885955
1.6855264
1.6090771
1.5509752
1.5059933
1.4706423
1.4424834
1.41978
1.4012743
1.3860393
1.3733807
1.3627704
1.3538013
1.3461561
1.3395844
22.681786
22.446466
21.672982
20.667776
19.087014
16.02799
11.628292
8.068613
5.8488027
4.4513519
3.5454779
2.915571
2.4534782
2.1395635
1.9321132
1.7887329
1.6856462
1.6091842
1.5510728
1.5060839
1.4707276
1.4425645
1.4198578
1.4013494
1.3861122
1.3734519
1.3628402
1.3538699
1.3462236
1.3396511
22.683675
22.448533
21.675977
20.672147
19.094307
16.041383
11.643801
8.0784376
5.8538544
4.4537718
3.5466495
2.9161208
2.4537562
2.1397656
1.9322768
1.7888713
1.685767
1.6092921
1.5511713
1.5061754
1.4708136
1.4426463
1.4199364
1.4014253
1.3861859
1.3735238
1.3629107
1.3539392
1.3462919
1.3397186
22.685562
22.450599
21.678975
20.676522
19.101605
16.054777
11.659356
8.0883043
5.8589257
4.4561995
3.5478231
2.9166711
2.4540344
2.1399684
1.9324412
1.7890105
1.6858886
1.6094009
1.5512706
1.5062677
1.4709005
1.4427291
1.4200158
1.401502
1.3862605
1.3735966
1.362982
1.3540093
1.346361
1.3397868
22.687448
22.452664
21.681974
20.680899
19.108905
16.068185
11.674957
8.098212
5.8640166
4.4586348
3.5489989
2.9172216
2.4543131
2.1401719
1.9326065
1.7891506
1.6860111
1.6095106
1.5513708
1.5063608
1.4709882
1.4428126
1.4200959
1.4015795
1.3863358
1.3736701
1.363054
1.3540801
1.3464308
1.3398558
22.689333
22.454729
21.684974
20.68528
19.116209
16.081606
11.690602
8.1081621
5.8691292
4.4610772
3.5501767
2.9177726
2.4545921
2.1403762
1.9327727
1.7892916
1.6861346
1.6096212
1.5514719
1.5064549
1.4710769
1.442897
1.420177
1.4016578
1.3864119
1.3737444
1.3631269
1.3541517
1.3465014
1.3399255
22.691217
22.456792
21.687978
20.689663
19.123516
16.095026
11.706291
8.118153
5.8742604
4.463527
3.5513568
2.9183238
2.4548714
2.1405813
1.9329397
1.7894336
1.6862589
1.6097326
1.5515739
1.5065497
1.4711662
1.4429821
1.4202588
1.4017369
1.3864888
1.3738195
1.3632004
1.3542241
1.3465727
1.3399959
22.693099
22.458855
21.690983
20.69405
19.130825
16.108465
11.722025
8.1281868
5.8794131
4.4659845
3.5525387
2.9188755
2.4551512
2.1407871
1.9331077
1.7895764
1.6863842
1.609845
1.5516766
1.5066454
1.4712564
1.4430681
1.4203413
1.4018167
1.3865664
1.3738953
1.3632747
1.3542971
1.3466447
1.340067
22.694979
22.460916
21.69399
20.698439
19.138139
16.12191
11.737803
8.1382614
5.8845861
4.468449
3.5537226
2.9194275
2.4554313
2.1409937
1.9332765
1.7897201
1.6865103
1.6099581
1.5517802
1.5067418
1.4713474
1.4431547
1.4204246
1.4018972
1.3866447
1.3739717
1.3633496
1.3543708
1.3467173
1.3401388
22.696857
22.462977
21.696999
20.702831
19.145456
16.135356
11.753626
8.1483791
5.8897786
4.4709207
3.5549087
2.9199798
2.4557118
2.141201
1.9334463
1.7898648
1.6866374
1.6100722
1.5518847
1.5068391
1.4714392
1.4432423
1.4205087
1.4019785
1.3867238
1.374049
1.3634253
1.3544452
1.3467907
1.3402113
22.698734
22.465036
21.70001
20.707224
19.152775
16.148822
11.769493
8.1585381
5.8949935
4.4733999
3.5560966
2.9205323
2.4559926
2.1414091
1.9336169
1.7900104
1.6867652
1.610187
1.5519899
1.5069371
1.4715317
1.4433305
1.4205934
1.4020605
1.3868035
1.3741269
1.3635017
1.3545203
1.3468647
1.3402844
22.700609
22.467096
21.703023
20.71162
19.160096
16.162284
11.785404
8.16874
5.9002269
4.4758862
3.5572863
2.9210851
2.4562738
2.1416179
1.9337884
1.7901568
1.686894
1.6103027
1.5520959
1.507036
1.471625
1.4434194
1.4206789
1.4021433
1.386884
1.3742055
1.3635787
1.3545961
1.3469393
1.3403582
22.702482
22.469155
21.706037
20.716019
19.167419
16.175761
11.801359
8.178984
5.9054823
4.4783795
3.5584781
2.9216382
2.4565554
2.1418274
1.9339607
1.7903041
1.6870235
1.6104192
1.5522027
1.5071355
1.471719
1.4435091
1.4207651
1.4022266
1.386965
1.3742847
1.3636564
1.3546725
1.3470146
1.3404325
22.704353
22.471213
21.709053
20.720419
19.174744
16.189246
11.817357
8.1892707
5.9107581
4.4808804
3.5596718
2.9221917
2.4568373
2.1420378
1.9341339
1.7904524
1.687154
1.6105366
1.5523104
1.5072359
1.4718139
1.4435996
1.420852
1.4023108
1.3870469
1.3743647
1.3637348
1.3547496
1.3470906
1.3405076
22.706223
22.47327
21.712069
20.724821
19.182073
16.202731
11.8334
8.1996002
5.9160536
4.4833885
3.5608674
2.9227454
2.4571197
2.1422488
1.934308
1.7906015
1.6872853
1.6106548
1.5524189
1.507337
1.4719094
1.4436907
1.4209397
1.4023956
1.3871294
1.3744452
1.3638138
1.3548273
1.3471672
1.3405833
22.70809
22.475327
21.715086
20.729226
19.189404
16.216232
11.849485
8.209972
5.9213722
4.4859034
3.5620647
2.9232994
2.4574024
2.1424607
1.934483
1.7907515
1.6874176
1.6107739
1.5525281
1.5074389
1.4720057
1.4437826
1.421028
1.4024811
1.3872126
1.3745266
1.3638936
1.3549056
1.3472445
1.3406596
22.709956
22.477382
21.718103
20.733633
19.196736
16.229732
11.865615
8.2203876
5.9267092
4.4884258
3.5632639
2.9238537
2.4576856
2.1426734
1.934659
1.7909024
1.6875506
1.6108938
1.5526382
1.5075416
1.4721027
1.4438751
1.4211171
1.4025673
1.3872964
1.3746085
1.3639739
1.3549846
1.3473224
1.3407365
22.71182
22.479437
21.72112
20.738043
19.204069
16.243242
11.881789
8.2308456
5.9320687
4.4909557
3.5644652
2.9244082
2.4579692
2.142887
1.9348359
1.7910544
1.6876847
1.6110146
1.5527491
1.5076451
1.4722006
1.4439685
1.4212069
1.4026543
1.3873811
1.3746911
1.364055
1.3550644
1.347401
1.3408141
22.713682
22.48149
21.724139
20.742454
19.211404
16.256761
11.898005
8.2413476
5.9374491
4.4934924
3.5656683
2.9249631
2.4582532
2.1431014
1.9350136
1.7912071
1.6878196
1.6111363
1.5528608
1.5077494
1.4722991
1.4440626
1.4212974
1.4027419
1.3874663
1.3747745
1.3641367
1.3551447
1.3474802
1.3408923
22.715543
22.483542
21.727157
20.746868
19.218741
16.270279
11.914264
8.2518923
5.942849
4.4960362
3.5668732
2.9255184
2.4585377
2.1433166
1.9351924
1.7913609
1.6879554
1.6112588
1.5529734
1.5078545
1.4723985
1.4441575
1.4213887
1.4028302
1.3875523
1.3748585
1.3642191
1.3552257
1.3475601
1.3409712
22.717402
22.485593
21.730176
20.751283
19.226081
16.28381
11.930567
8.2624812
5.948273
4.4985878
3.5680798
2.9260739
2.4588225
2.1435325
1.935372
1.7915155
1.688092
1.6113821
1.5530867
1.5079602
1.4724985
1.4442529
1.4214806
1.4029192
1.3876389
1.3749431
1.364302
1.3553073
1.3476405
1.3410507
22.719259
22.487643
21.733196
20.7557
19.233421
16.297341
11.946913
8.2731136
5.9537152
4.5011462
3.5692884
2.9266297
2.4591079
2.1437493
1.9355527
1.7916711
1.6882297
1.6115064
1.5532009
1.508067
1.4725994
1.4443493
1.4215733
1.403009
1.3877263
1.3750285
1.3643858
1.3553897
1.3477217
1.3411309
22.721114
22.489692
21.736215
20.760119
19.240762
16.31088
11.963301
8.2837899
5.9591805
4.5037117
3.5704989
2.9271857
2.4593938
2.143967
1.9357342
1.7918277
1.6883682
1.6116314
1.5533159
1.5081744
1.472701
1.4444464
1.4216667
1.4030995
1.3878143
1.3751145
1.3644702
1.3554727
1.3478035
1.3412116
22.722968
22.49174
21.739236
20.764539
19.248103
16.324425
11.979731
8.2945104
5.964667
4.5062847
3.5717109
2.9277421
2.45968
2.1441854
1.9359167
1.7919852
1.6885077
1.6117574
1.5534318
1.5082827
1.4728034
1.4445442
1.4217609
1.4031907
1.3879031
1.3752013
1.3645553
1.3555563
1.347886
1.3412931
22.724821
22.493787
21.742257
20.76896
19.255446
16.337971
11.996205
8.3052751
5.9701732
4.5088647
3.5729247
2.9282987
2.4599666
2.1444047
1.9361001
1.7921436
1.688648
1.6118842
1.5535485
1.5083918
1.4729066
1.4446427
1.4218557
1.4032825
1.3879925
1.3752887
1.364641
1.3556406
1.3479691
1.3413751
22.726671
22.495834
21.745279
20.773382
19.262789
16.351527
12.012721
8.3160844
5.975704
4.5114516
3.5741405
2.9288557
2.4602538
2.1446248
1.9362845
1.792303
1.6887893
1.6120119
1.5536661
1.5085017
1.4730106
1.4447421
1.4219515
1.4033752
1.3880828
1.3753769
1.3647275
1.3557257
1.3480529
1.341458
22.72852
22.49788
21.748302
20.777807
19.270135
16.365083
12.029279
8.3269376
5.981253
4.5140461
3.5753579
2.9294128
2.4605414
2.1448458
1.9364698
1.7924633
1.6889315
1.6121404
1.5537844
1.5086124
1.4731153
1.4448422
1.4220478
1.4034685
1.3881736
1.3754657
1.3648145
1.3558114
1.3481374
1.3415414
22.730367
22.499925
21.751327
20.782232
19.27748
16.378645
12.045878
8.3378361
5.9868261
4.5166478
3.576577
2.9299701
2.4608293
2.1450676
1.936656
1.7926245
1.6890745
1.6122699
1.5539036
1.5087239
1.4732209
1.4449431
1.4221449
1.4035626
1.3882652
1.3755552
1.3649024
1.3558978
1.3482225
1.3416255
22.732212
22.50197
21.754353
20.786659
19.284826
16.392211
12.062521
8.3487792
5.9924202
4.5192561
3.5777978
2.9305276
2.4611177
2.1452902
1.9368431
1.7927866
1.6892184
1.6124001
1.5540236
1.5088361
1.4733271
1.4450446
1.4222426
1.4036573
1.3883574
1.3756454
1.3649908
1.3559847
1.3483082
1.3417101
22.734055
22.504015
21.757381
20.791088
19.292171
16.405779
12.079205
8.3597676
5.9980347
4.5218718
3.5790204
2.9310855
2.4614066
2.1455136
1.9370311
1.7929497
1.6893632
1.6125313
1.5541445
1.5089492
1.4734343
1.445147
1.4223413
1.4037529
1.3884504
1.3757363
1.36508
1.3560725
1.3483947
1.3417956
22.735896
22.506058
21.760411
20.795519
19.299517
16.419354
12.09593
8.3708012
6.0036743
4.524495
3.5802446
2.9316437
2.4616959
2.1457379
1.9372201
1.7931137
1.6895089
1.6126633
1.5542661
1.509063
1.4735421
1.4452501
1.4224405
1.403849
1.3885441
1.3758279
1.3651698
1.3561608
1.3484818
1.3418816
22.737735
22.508101
21.763442
20.79995
19.306864
16.432928
12.112697
8.3818798
6.0093323
4.527125
3.5814705
2.932202
2.4619857
2.145963
1.93741
1.7932786
1.6896555
1.6127962
1.5543886
1.5091776
1.4736507
1.4453539
1.4225405
1.403946
1.3886385
1.3759202
1.3652603
1.3562499
1.3485696
1.3419683
22.739572
22.510142
21.766474
20.804383
19.314212
16.446508
12.129505
8.3930044
6.0150156
4.5297621
3.5826982
2.9327606
2.462276
2.1461889
1.9376008
1.7934444
1.689803
1.6129298
1.5545119
1.509293
1.47376
1.4454584
1.4226412
1.4040436
1.3887335
1.3760131
1.3653515
1.3563395
1.348658
1.3420556
22.741407
22.512182
21.769508
20.808817
19.321559
16.460091
12.146355
8.4041747
6.0207196
4.532407
3.5839276
2.9333195
2.4625668
2.1464157
1.9377927
1.7936112
1.6899514
1.6130645
1.5546361
1.5094093
1.4738703
1.4455639
1.4227428
1.404142
1.3888294
1.3761068
1.3654435
1.35643
1.3487472
1.3421437
22.743239
22.514221
21.772541
20.813251
19.328906
16.473675
12.163246
8.4153913
6.0264452
4.5350588
3.5851588
2.9338787
2.462858
2.1466433
1.9379855
1.793779
1.6901008
1.6132
1.5547611
1.5095264
1.4739812
1.4456699
1.422845
1.4042411
1.3889259
1.3762012
1.365536
1.356521
1.3488369
1.3422323
22.74507
22.516259
21.775575
20.817687
19.336252
16.487264
12.180177
8.4266533
6.0321961
4.5377177
3.5863918
2.9344384
2.4631499
2.1468719
1.9381793
1.7939477
1.6902511
1.6133364
1.554887
1.5096443
1.474093
1.4457768
1.4229481
1.404341
1.3890232
1.3762963
1.3656294
1.3566128
1.3489274
1.3423217
22.746898
22.518295
21.778609
20.822123
19.343598
16.500853
12.19715
8.4379622
6.0379659
4.5403845
3.5876264
2.9349983
2.4634422
2.1471013
1.938374
1.7941173
1.6904023
1.6134736
1.5550136
1.5097629
1.4742054
1.4458844
1.4230517
1.4044414
1.389121
1.376392
1.3657232
1.3567051
1.3490185
1.3424116
22.748725
22.520331
21.781643
20.82656
19.350945
16.514446
12.214164
8.4493174
6.0437624
4.5430582
3.5888628
2.9355585
2.4637352
2.1473317
1.9385697
1.794288
1.6905545
1.6136117
1.5551412
1.5098824
1.4743187
1.4459928
1.4231563
1.4045428
1.3892198
1.3764886
1.365818
1.3567983
1.3491103
1.3425023
22.75055
22.522365
21.784677
20.830997
19.358292
16.528041
12.231218
8.4607193
6.0495791
4.545739
3.590101
2.9361191
2.4640287
2.147563
1.9387663
1.7944596
1.6907075
1.6137507
1.5552695
1.5100027
1.4744327
1.446102
1.4232615
1.4046448
1.3893191
1.3765857
1.3659133
1.3568921
1.3492028
1.3425936
22.752372
22.524398
21.787711
20.835436
19.365639
16.541637
12.248313
8.4721683
6.0554193
4.5484278
3.5913409
2.9366799
2.4643227
2.1477952
1.938964
1.7946322
1.6908615
1.6138905
1.5553987
1.5101239
1.4745476
1.4462119
1.4233675
1.4047475
1.3894192
1.3766836
1.3660093
1.3569866
1.3492959
1.3426856
22.754193
22.526431
21.790745
20.839876
19.372984
16.555236
12.265448
8.4836638
6.0612841
4.5511238
3.5925825
2.9372412
2.4646173
2.1480283
1.9391626
1.7948057
1.6910163
1.6140312
1.5555287
1.5102458
1.4746631
1.4463225
1.4234741
1.4048509
1.38952
1.3767822
1.366106
1.3570817
1.3493897
1.3427781
22.756012
22.528462
21.793779
20.844317
19.380328
16.568834
12.282623
8.4952072
6.0671691
4.5538267
3.5938261
2.9378029
2.4649126
2.1482624
1.9393623
1.7949803
1.6911722
1.6141729
1.5556597
1.5103687
1.4747797
1.4464341
1.4235817
1.4049552
1.3896216
1.3768816
1.3662035
1.3571776
1.3494842
1.3428715
22.757829
22.530492
21.796813
20.84876
19.387672
16.582436
12.299839
8.5067976
6.0730817
4.5565376
3.5950714
2.938365
2.4652084
2.1484974
1.939563
1.7951558
1.691329
1.6143155
1.5557915
1.5104923
1.4748969
1.4465463
1.4236899
1.4050601
1.3897238
1.3769816
1.3663016
1.3572741
1.3495793
1.3429655
22.759644
22.53252
21.799847
20.853202
19.395016
16.596037
12.317095
8.5184357
6.0790142
4.559256
3.5963184
2.9389273
2.4655048
2.1487333
1.9397647
1.7953323
1.6914867
1.6144589
1.5559241
1.5106167
1.475015
1.4466593
1.4237988
1.4051658
1.3898268
1.3770823
1.3664005
1.3573714
1.3496752
1.3430602
22.761457
22.534549
21.802881
20.857646
19.402359
16.60964
12.334389
8.5301217
6.0849727
4.5619812
3.5975671
2.9394899
2.4658018
2.1489701
1.9399673
1.7955097
1.6916452
1.6146032
1.5560575
1.5107418
1.4751338
1.4467731
1.4239085
1.4052722
1.3899304
1.3771837
1.3664999
1.3574692
1.3497716
1.3431554
22.763268
22.536576
21.805915
20.86209
19.409701
16.623244
12.351724
8.5418556
6.0909543
4.5647143
3.5988177
2.940053
2.4660995
2.1492079
1.9401711
1.7956882
1.6918048
1.6147485
1.5561919
1.5108679
1.4752535
1.4468877
1.424019
1.4053794
1.3900349
1.3772859
1.3666002
1.3575679
1.3498689
1.3432515
22.765077
22.538603
21.808951
20.866533
19.417042
16.636846
12.369098
8.553638
6.0969586
4.5674552
3.6000701
2.9406164
2.4663977
2.1494467
1.9403758
1.7958675
1.6919653
1.6148946
1.556327
1.5109947
1.4753738
1.447003
1.4241301
1.4054872
1.39014
1.3773886
1.3667011
1.3576671
1.3499667
1.3433481
22.766884
22.540629
21.811986
20.870978
19.42438
16.650452
12.386511
8.5654682
6.1029899
4.5702031
3.6013241
2.9411803
2.4666966
2.1496864
1.9405816
1.796048
1.6921267
1.6150417
1.5564631
1.5111224
1.4754951
1.4471191
1.4242421
1.4055959
1.3902458
1.3774922
1.3668027
1.3577671
1.3500653
1.3434455
22.768688
22.542655
21.815023
20.875422
19.431719
16.664056
12.403963
8.577347
6.109042
4.5729586
3.60258
2.9417446
2.4669962
2.1499271
1.9407883
1.7962293
1.6922891
1.6151895
1.5565999
1.5112508
1.475617
1.4472358
1.4243548
1.4057052
1.3903523
1.3775964
1.366905
1.3578677
1.3501645
1.3435434
22.77049
22.54468
21.818061
20.879867
19.439056
16.677659
12.421455
8.589275
6.115122
4.5757223
3.6038377
2.9423092
2.4672964
2.1501689
1.9409961
1.7964118
1.6924525
1.6153384
1.5567377
1.5113801
1.4757398
1.4473535
1.4244683
1.4058154
1.3904597
1.3777015
1.3670081
1.3579691
1.3502645
1.3436421
22.77229
22.546704
21.821101
20.884312
19.446393
16.691264
12.438984
8.6012517
6.1212242
4.578493
3.6050971
2.942874
2.4675972
2.1504115
1.9412048
1.7965952
1.6926169
1.6154881
1.5568763
1.5115102
1.4758634
1.4474719
1.4245825
1.4059261
1.3905677
1.3778071
1.3671117
1.3580711
1.3503651
1.3437414
22.774088
22.548727
21.824142
20.888758
19.453728
16.704866
12.456553
8.6132775
6.127352
4.5812712
3.6063584
2.9434392
2.4678986
2.1506552
1.9414147
1.7967797
1.6927822
1.6156387
1.5570158
1.5116413
1.4759878
1.4475911
1.4246976
1.4060378
1.3906765
1.3779136
1.3672162
1.3581738
1.3504664
1.3438415
22.775882
22.55075
21.827184
20.893204
19.461061
16.71847
12.47416
8.6253527
6.1335052
4.584058
3.6076214
2.9440049
2.4682007
2.1508998
1.9416255
1.796965
1.6929484
1.6157901
1.557156
1.511773
1.4761128
1.4477109
1.4248132
1.40615
1.3907859
1.3780206
1.3673212
1.3582772
1.3505683
1.3439421
22.777675
22.552771
21.830227
20.897651
19.468392
16.732072
12.491805
8.6374776
6.1396816
4.5868519
3.6088863
2.944571
2.4685035
2.1511455
1.9418374
1.7971515
1.6931156
1.6159426
1.5572973
1.5119058
1.4762389
1.4478317
1.4249298
1.4062631
1.3908962
1.3781285
1.3674271
1.3583814
1.350671
1.3440435
22.779465
22.554792
21.83327
20.902099
19.475722
16.745672
12.509489
8.6496524
6.1458863
4.5896532
3.6101531
2.9451375
2.4688069
2.1513921
1.9420504
1.7973389
1.6932837
1.6160959
1.5574393
1.5120392
1.4763656
1.4479532
1.4250471
1.4063769
1.3910071
1.378237
1.3675336
1.3584862
1.3507743
1.3441455
22.781252
22.556811
21.836314
20.906547
19.483051
16.759273
12.527211
8.6618769
6.1521132
4.5924633
3.6114215
2.9457042
2.469111
2.1516397
1.9422644
1.7975274
1.6934527
1.6162502
1.5575823
1.5121735
1.4764932
1.4480755
1.4251651
1.4064914
1.3911188
1.3783463
1.3676409
1.3585917
1.3508783
1.3442482
22.783037
22.55883
21.839357
20.910994
19.490378
16.77287
12.54497
8.6741517
6.1583688
4.595281
3.6126918
2.9462713
2.4694158
2.1518883
1.9424794
1.7977167
1.6936226
1.6164052
1.557726
1.5123085
1.4766215
1.4481985
1.4252837
1.4066066
1.3912311
1.3784562
1.3677487
1.3586978
1.3509829
1.3443515
22.784819
22.560848
21.8424
20.915442
19.497704
16.786469
12.562768
8.686477
6.1646481
4.5981059
3.6139639
2.9468387
2.4697214
2.152138
1.9426957
1.7979073
1.6937937
1.6165614
1.5578707
1.5124445
1.4767508
1.4483224
1.4254033
1.4067227
1.3913443
1.3785669
1.3678574
1.3588047
1.3510883
1.3444556
22.786599
22.562865
21.845443
20.919889
19.505027
16.800065
12.580603
8.6988528
6.1709542
4.6009396
3.6152379
2.9474064
2.4700276
2.1523888
1.9429129
1.7980987
1.6939656
1.6167183
1.5580162
1.5125812
1.4768808
1.448447
1.4255235
1.4068394
1.3914581
1.3786783
1.3679667
1.3589122
1.3511943
1.3445603
22.788377
22.564882
21.848486
20.924336
19.512348
16.813658
12.598475
8.7112798
6.1772866
4.6037815
3.6165135
2.9479746
2.4703346
2.1526406
1.9431312
1.7982912
1.6941384
1.6168762
1.5581625
1.5127188
1.4770116
1.4485723
1.4256446
1.4069569
1.3915726
1.3787903
1.3680767
1.3590205
1.351301
1.3446657
22.790152
22.566898
21.851528
20.928783
19.519668
16.827251
12.616385
8.7237578
6.1836441
4.6066308
3.6177909
2.948543
2.4706423
2.1528934
1.9433506
1.7984847
1.6943122
1.6170348
1.5583096
1.512857
1.477143
1.4486983
1.4257662
1.407075
1.3916877
1.378903
1.3681873
1.3591293
1.3514083
1.3447716
22.791924
22.568914
21.85457
20.93323
19.526985
16.840839
12.634332
8.7362867
6.1900304
4.6094884
3.6190701
2.9491118
2.4709508
2.1531475
1.9435711
1.7986794
1.6944871
1.6171946
1.5584577
1.5129963
1.4772754
1.4488253
1.4258888
1.407194
1.3918038
1.3790166
1.3682988
1.359239
1.3515164
1.3448784
22.793694
22.57093
21.857612
20.937677
19.534302
16.854428
12.652315
8.7488676
6.1964407
4.6123551
3.620351
2.9496808
2.47126
2.1534026
1.9437927
1.798875
1.6946629
1.6173551
1.5586066
1.5131362
1.4774085
1.4489529
1.426012
1.4073135
1.3919204
1.3791307
1.3684108
1.3593492
1.3516251
1.3449857
22.795462
22.572945
21.860654
20.942124
19.541616
16.868013
12.670335
8.7615002
6.2028807
4.6152291
3.6216335
2.95025
2.47157
2.153659
1.9440155
1.7990718
1.6948398
1.6175166
1.5587564
1.5132771
1.4775424
1.4490813
1.426136
1.4074339
1.3920378
1.3792456
1.3685236
1.3594602
1.3517345
1.3450938
22.797226
22.57496
21.863695
20.946571
19.548927
16.881595
12.688392
8.7741845
6.2093454
4.6181115
3.6229179
2.9508195
2.4718808
2.1539164
1.9442394
1.7992696
1.6950176
1.6176789
1.558907
1.5134187
1.477677
1.4492104
1.4262606
1.4075549
1.3921558
1.3793611
1.368637
1.3595717
1.3518445
1.3452023
22.798988
22.576975
21.866736
20.951019
19.556236
16.895176
12.706485
8.7869214
6.2158393
4.6210035
3.624204
2.9513893
2.4721924
2.1541752
1.9444646
1.7994686
1.6951965
1.6178424
1.5590586
1.5135613
1.4778125
1.4493404
1.4263862
1.4076768
1.3922747
1.3794774
1.3687512
1.3596841
1.3519553
1.3453117
22.800747
22.578989
21.869777
20.955467
19.563543
16.908752
12.724615
8.7997105
6.2223595
4.623903
3.6254919
2.9519593
2.4725049
2.154435
1.944691
1.7996686
1.6953763
1.6180066
1.559211
1.5137047
1.4779487
1.449471
1.4265124
1.4077993
1.3923941
1.3795944
1.3688659
1.359797
1.3520666
1.3454217
22.802504
22.581003
21.872818
20.959914
19.570848
16.922326
12.74278
8.8125524
6.2289074
4.6268109
3.6267814
2.9525296
2.4728183
2.1546962
1.9449186
1.7998698
1.6955572
1.6181718
1.5593643
1.5138489
1.4780858
1.4496025
1.4266394
1.4079226
1.3925144
1.3797121
1.3689814
1.3599107
1.3521786
1.3455323
22.804258
22.583016
21.875861
20.964362
19.57815
16.935897
12.760982
8.8254475
6.2354839
4.6297286
3.6280726
2.9530998
2.4731325
2.1549585
1.9451475
1.800072
1.6957389
1.6183379
1.5595183
1.5139938
1.4782235
1.4497346
1.426767
1.4080465
1.3926352
1.3798303
1.3690975
1.3600249
1.3522912
1.3456435
22.806009
22.585029
21.878904
20.968808
19.58545
16.949462
12.779218
8.8383952
6.2420871
4.6326544
3.6293656
2.95367
2.4734476
2.1552223
1.9453777
1.8002754
1.6959219
1.6185051
1.5596735
1.5141397
1.4783623
1.4498677
1.4268955
1.4081713
1.3927569
1.3799494
1.3692144
1.3601399
1.3524046
1.3457555
22.807757
22.58704
21.881947
20.973254
19.592748
16.963026
12.797491
8.8513968
6.2487205
4.6355884
3.6306602
2.9542402
2.4737636
2.1554873
1.9456091
1.80048
1.6961057
1.6186731
1.5598293
1.5142863
1.4785017
1.4500014
1.4270245
1.4082966
1.3928792
1.3800691
1.3693319
1.3602555
1.3525186
1.345868
22.809502
22.589052
21.884992
20.977699
19.600042
16.976586
12.815798
8.8644517
6.2553802
4.6385324
3.6319564
2.9548103
2.4740806
2.1557539
1.9458419
1.8006857
1.6962907
1.6188421
1.5599861
1.5144337
1.478642
1.4501359
1.4271544
1.4084227
1.3930022
1.3801895
1.3694501
1.3603718
1.3526332
1.3459812
22.811244
22.591062
21.888038
20.982144
19.607333
16.99014
12.83414
8.8775608
6.2620707
4.6414855
3.6332543
2.9553803
2.4743985
2.1560218
1.9460759
1.8008926
1.6964766
1.619012
1.5601436
1.5145818
1.4787829
1.4502711
1.4272849
1.4085495
1.3931257
1.3803105
1.3695688
1.3604886
1.3527484
1.3460949
22.812983
22.593072
21.891085
20.986589
19.614622
17.003692
12.852518
8.8907241
6.2687882
4.6444466
3.6345541
2.9559501
2.4747174
2.1562915
1.9463114
1.8011008
1.6966638
1.619183
1.5603022
1.514731
1.4789247
1.4504072
1.4274163
1.4086771
1.3932502
1.3804323
1.3696884
1.3606063
1.3528644
1.3462095
22.81472
22.595082
21.894134
20.991032
19.621909
17.017238
12.87093
8.9039414
6.2755362
4.6474176
3.6358556
2.9565196
2.4750373
2.1565627
1.9465483
1.8013101
1.6968519
1.6193548
1.5604616
1.5148808
1.4790672
1.4505438
1.4275483
1.4088053
1.3933752
1.3805546
1.3698085
1.3607245
1.3529809
1.3463245
22.816453
22.597091
21.897182
20.995476
19.629194
17.030781
12.889376
8.9172141
6.2823121
4.6503987
3.6371589
2.9570884
2.4753581
2.1568356
1.9467867
1.8015207
1.6970412
1.6195276
1.5606219
1.5150315
1.4792105
1.4506813
1.4276811
1.4089342
1.3935009
1.3806777
1.3699293
1.3608433
1.3530981
1.3464403
22.818183
22.599099
21.90023
20.999919
19.636475
17.044319
12.907857
8.9305416
6.2891181
4.6533883
3.6384641
2.9576566
2.4756801
2.1571102
1.9470266
1.8017324
1.6972314
1.6197012
1.5607829
1.515183
1.4793545
1.4508194
1.4278145
1.4090637
1.3936272
1.3808013
1.3700507
1.3609628
1.3532159
1.3465565
22.819911
22.601108
21.903278
21.004363
19.643752
17.057851
12.926372
8.943924
6.2959537
4.6563875
3.6397715
2.958224
2.4760032
2.1573868
1.947268
1.8019455
1.6974228
1.619876
1.560945
1.5153354
1.4794994
1.4509584
1.4279487
1.4091941
1.3937544
1.3809258
1.3701729
1.361083
1.3533344
1.3466736
22.821635
22.603116
21.906325
21.008806
19.651027
17.07138
12.944921
8.9573626
6.3028186
4.6593978
3.6410809
2.9587903
2.4763273
2.1576654
1.947511
1.8021597
1.6976151
1.6200515
1.5611079
1.5154886
1.479645
1.451098
1.4280836
1.409325
1.3938821
1.3810508
1.3702956
1.3612037
1.3534534
1.3467911
22.823356
22.605124
21.909372
21.01325
19.658299
17.084903
12.963504
8.9708572
6.3097141
4.6624172
3.6423926
2.9593556
2.4766525
2.1579461
1.9477557
1.8023752
1.6978085
1.6202281
1.5612716
1.5156426
1.4797914
1.4512384
1.4282192
1.4094568
1.3940106
1.3811765
1.370419
1.3613252
1.3535731
1.3469093
22.825074
22.607132
21.912418
21.017692
19.665569
17.09842
12.98212
8.9844076
6.3166387
4.6654462
3.6437071
2.9599199
2.4769789
2.158229
1.9480018
1.8025918
1.6980029
1.6204056
1.5614362
1.5157973
1.4799384
1.4513795
1.4283555
1.409589
1.3941396
1.3813028
1.370543
1.3614472
1.3536934
1.347028
22.826789
22.60914
21.915464
21.022133
19.672835
17.111933
13.000769
8.9980151
6.3235951
4.6684868
3.6450244
2.9604831
2.4773063
2.1585143
1.9482494
1.8028096
1.6981983
1.620584
1.5616017
1.515953
1.4800865
1.4515215
1.4284926
1.4097221
1.3942695
1.38143
1.3706677
1.3615699
1.3538144
1.3471475
22.828501
22.611148
21.91851
21.026574
19.680099
17.125439
13.019452