/*--------------------------------*- C++ -*----------------------------------*\
| =========                 |                                                 |
| \\      /  F ield         | OpenFOAM: The Open Source CFD Toolbox           |
|  \\    /   O peration     | Version:  v2012                                 |
|   \\  /    A nd           | Website:  www.openfoam.com                      |
|    \\/     M anipulation  |                                                 |
\*---------------------------------------------------------------------------*/
FoamFile
{
    version     2.0;
    format      ascii;
    class       volScalarField;
    location    "350";
    object      T;
}
// * * * * * * * * * * * * * * * * * * * * * * * * * * * * * * * * * * * * * //

dimensions      [0 0 0 1 0 0 0];


internalField   nonuniform List<scalar> 
24000
(
42.495157
42.627747
43.11172
43.881966
45.470296
50.290769
63.169008
83.765301
110.12815
140.97966
174.13163
210.11054
249.66189
286.68436
317.84379
343.60192
364.80051
382.25266
396.64611
408.53527
418.37632
426.54913
433.36368
439.07032
443.87085
447.92826
451.37469
454.31765
456.84492
459.02838
42.494323
42.62684
43.110213
43.879436
45.464716
50.261105
63.065543
83.596292
109.9099
140.71716
173.83437
209.77211
249.29686
286.33066
317.51153
343.29153
364.51027
381.97999
396.38811
408.28875
418.13814
426.31658
433.13471
438.84352
443.64534
447.70355
451.15057
454.09406
456.6219
458.80602
42.493468
42.62593
43.10863
43.876419
45.456421
50.228472
62.983517
83.485472
109.78838
140.58269
173.69361
209.62029
249.12469
286.15364
317.33661
343.11997
364.34192
381.81523
396.22775
408.13352
417.98791
426.1706
432.99194
438.70297
443.50623
447.56535
451.01297
453.95691
456.48515
458.66969
42.49261
42.624985
43.106912
43.873091
45.447828
50.198054
62.909796
83.391663
109.69326
140.48474
173.59929
209.53074
249.03452
286.07034
317.26423
343.06521
364.30578
381.79477
396.21885
408.13195
417.99046
426.17526
432.99766
438.70926
443.51289
447.5723
451.02014
453.96424
456.49257
458.67711
42.491751
42.62402
43.105132
43.869647
45.439191
50.168647
62.839792
83.305875
109.60613
140.40134
173.52665
209.46768
248.97177
286.00486
317.19902
343.00041
364.24305
381.73504
396.162
408.07774
417.93852
426.12518
432.949
438.66167
443.46606
447.52602
450.97425
453.91863
456.44717
458.63188
42.490892
42.62304
43.10332
43.86616
45.430635
50.139889
62.771554
83.222413
109.52111
140.32683
173.46619
209.42088
248.93134
285.96432
317.16019
342.96461
364.2107
381.70588
396.13541
408.05296
417.91495
426.10238
432.92672
438.63973
443.44438
447.50454
450.95292
453.89743
456.42606
458.61084
42.490032
42.62205
43.101491
43.862662
45.422138
50.111489
62.704141
83.138967
109.43862
140.25724
173.4123
209.38265
248.90208
285.93482
317.13069
342.93583
364.18284
381.67896
396.1093
408.0275
417.89002
426.07787
432.90255
438.61584
443.4207
447.48103
450.92955
453.87417
456.40291
458.58776
42.489173
42.621054
43.099656
43.859162
45.413683
50.083308
62.637169
83.055461
109.35751
140.19041
173.36208
209.34927
248.87931
285.91203
317.10739
342.91262
364.16
381.65663
396.08744
408.00603
417.86884
426.05693
432.8818
438.59524
443.40024
447.46068
450.9093
453.85401
456.38282
458.56774
42.488313
42.620055
43.097819
43.855669
45.405255
50.055274
62.570439
82.971879
109.27714
140.12509
173.31389
209.31858
248.86011
285.89285
317.08733
342.89216
364.13944
381.63617
396.06714
407.98586
417.8488
426.037
432.86198
438.57552
443.38061
447.44113
450.88983
453.83461
456.36348
458.54847
42.487454
42.619056
43.095979
43.852178
45.396847
50.027357
62.503859
82.888195
109.19714
140.06059
173.26684
209.28946
248.84299
285.87578
317.06915
342.87332
364.12025
381.61685
396.04779
407.9665
417.82946
426.0177
432.84273
438.55633
443.36148
447.42207
450.87084
453.81568
456.34461
458.52966
42.486595
42.618057
43.094139
43.848688
45.388467
49.999522
62.437366
82.80441
109.1173
139.99652
173.22046
209.26126
248.82709
285.85992
317.05205
342.85539
364.10179
381.59812
396.02891
407.94753
417.81043
425.99866
432.82369
438.53733
443.34253
447.40317
450.85199
453.79688
456.32588
458.51098
42.485737
42.617058
43.092299
43.845202
45.380111
49.971776
62.37093
82.720507
109.03748
139.93267
173.17446
209.23363
248.81194
285.84478
317.03555
342.83793
364.08369
381.57965
396.01021
407.92867
417.79147
425.97965
432.80467
438.51831
443.32354
447.38422
450.83309
453.77804
456.30709
458.49225
42.48488
42.616058
43.090457
43.841718
45.371763
49.944099
62.304546
82.636496
108.95764
139.86892
173.12868
209.20634
248.79723
285.83004
317.01938
342.82073
364.06577
381.5613
395.99158
407.90983
417.77249
425.96059
432.78558
438.49922
443.30446
447.36518
450.81408
453.75908
456.28818
458.4734
42.484023
42.615059
43.088616
43.838235
45.363424
49.916487
62.238185
82.552361
108.87771
139.80518
173.08304
209.17929
248.78281
285.81553
317.00336
342.8036
364.04786
381.54289
395.97284
407.89085
417.75336
425.94136
432.7663
438.47992
443.28518
447.34592
450.79486
453.73991
456.26907
458.45434
42.483167
42.61406
43.086774
43.834752
45.355094
49.888944
62.171851
82.468116
108.79767
139.74143
173.03746
209.15239
248.76857
285.80114
316.98741
342.78648
364.02992
381.52443
395.95402
407.87177
417.73409
425.92198
432.74685
438.46045
443.26571
447.32647
450.77546
453.72055
456.24976
458.43509
42.482312
42.613061
43.084932
43.831269
45.34677
49.861456
62.105543
82.383747
108.71752
139.67762
172.99192
209.1256
248.75444
285.78682
316.97146
342.76933
364.01191
381.50585
395.93506
407.85252
417.71464
425.9024
432.7272
438.44077
443.24603
447.30681
450.75582
453.70096
456.23022
458.41561
42.481458
42.612063
43.08309
43.827788
45.338475
49.834042
62.039252
82.299265
108.63723
139.61374
172.94639
209.09889
248.7404
285.77252
316.95549
342.75212
363.9938
381.48716
395.91597
407.83312
417.69503
425.88265
432.70738
438.42091
443.22615
447.28695
450.736
453.68117
456.21048
458.39594
42.480604
42.611065
43.081247
43.824306
45.330193
49.806685
61.972988
82.214661
108.5568
139.54978
172.90087
209.07225
248.72641
285.7582
316.93945
342.73479
363.97554
381.46829
395.89667
407.81351
417.67519
425.86267
432.6873
438.40079
443.20603
447.26684
450.71591
453.66113
456.1905
458.37601
42.479751
42.610068
43.079405
43.820825
45.321918
49.779392
61.90674
82.129943
108.47624
139.48575
172.85535
209.04566
248.71245
285.74386
316.92335
342.71736
363.95716
381.44929
395.87723
407.79374
417.65519
425.84251
432.66705
438.38049
443.18571
447.24653
450.69564
453.6409
456.17031
458.35589
42.478899
42.609071
43.077562
43.817345
45.313651
49.752166
61.840515
82.045106
108.39552
139.42163
172.80983
209.01912
248.69852
285.72949
316.90716
342.69983
363.93865
381.43013
395.85761
407.77378
417.63499
425.82214
432.64659
438.35997
443.16518
447.22601
450.67514
453.62044
456.14991
458.33554
42.478047
42.608074
43.075719
43.813872
45.305392
49.724993
61.774324
81.960152
108.31466
139.35742
172.7643
208.99262
248.68462
285.71508
316.8909
342.68218
363.92001
381.41083
395.83784
407.75366
417.61462
425.80161
432.62595
438.33928
443.14447
447.2053
450.65446
453.5998
456.12932
458.31501
42.477199
42.607078
43.073876
43.810401
45.297142
49.697895
61.708149
81.875083
108.23366
139.29312
172.71876
208.96615
248.67073
285.70061
316.87453
342.6644
363.9012
381.39133
395.81787
407.73333
417.59403
425.78084
432.60507
438.31835
443.12351
447.18435
450.63353
453.57891
456.10848
458.29424
42.476351
42.606083
43.072033
43.806931
45.288922
49.670851
61.642002
81.789895
108.15251
139.22874
172.6732
208.93972
248.65684
285.68608
316.85807
342.64649
363.88226
381.3717
395.79774
407.71283
417.57327
425.75991
432.58403
438.29724
443.10238
447.16322
450.61242
453.55785
456.08747
458.27329
42.475504
42.605088
43.07019
43.803465
45.280713
49.643876
61.575888
81.704595
108.07121
139.16428
172.62763
208.91333
248.64296
285.6715
316.8415
342.62846
363.86317
381.35189
395.77744
407.69215
417.55231
425.73877
432.56277
438.27592
443.08103
447.14187
450.5911
453.53657
456.06624
458.25212
42.474657
42.604093
43.068347
43.800001
45.272512
49.61697
61.509796
81.619173
107.98977
139.09972
172.58205
208.88697
248.62908
285.65686
316.82484
342.61031
363.84394
381.33195
395.75699
407.67132
417.5312
425.71747
432.54136
438.25443
443.05952
447.12036
450.56961
453.51512
456.04484
458.23079
42.473812
42.603099
43.066506
43.796539
45.26432
49.590118
61.44374
81.533644
107.90817
139.03507
172.53644
208.86064
248.6152
285.64214
316.80807
342.592
363.82454
381.31181
395.73632
407.65026
417.50986
425.69594
432.5197
438.23271
443.03776
447.09861
450.54788
453.49343
456.02321
458.20921
42.472967
42.602105
43.064666
43.793077
45.256136
49.563343
61.377713
81.447993
107.82643
138.97033
172.49083
208.83434
248.60132
285.62737
316.79119
342.57358
363.805
381.29152
395.71551
407.62905
417.48837
425.67425
432.49789
438.21083
443.01585
447.07669
450.52599
453.47157
456.00141
458.18748
42.472123
42.601112
43.062825
43.789616
45.247964
49.536621
61.311715
81.362234
107.74454
138.90551
172.44522
208.80808
248.58744
285.61253
316.77421
342.55502
363.78531
381.27107
395.69453
407.60766
417.46669
425.65236
432.47588
438.18874
442.99373
447.05457
450.50389
453.44951
455.9794
458.16553
42.47128
42.600119
43.060989
43.786156
45.239822
49.509975
61.245762
81.276355
107.6625
138.8406
172.39959
208.78184
248.57355
285.59762
316.75713
342.53634
363.76549
381.25048
395.67339
407.58612
417.44485
425.63032
432.4537
438.16649
442.97145
447.03229
450.48163
453.42729
455.95723
458.14342
42.470438
42.599127
43.059153
43.782697
45.23169
49.483395
61.179836
81.190366
107.58032
138.77561
172.35394
208.75562
248.55966
285.58264
316.73992
342.51751
363.74549
381.22969
395.65205
407.56435
417.42278
425.60805
432.4313
438.14401
442.94893
447.00977
450.45913
453.40483
455.93482
458.12109
42.469597
42.598136
43.057317
43.77924
45.223567
49.456873
61.113945
81.104262
107.49799
138.71051
172.30828
208.72943
248.54575
285.56758
316.72261
342.49854
363.72534
381.20876
395.63055
407.54244
417.40057
425.58563
432.40874
438.12138
442.92626
446.98709
450.43647
453.38221
455.91226
458.09859
42.468756
42.597146
43.055482
43.775784
45.215453
49.43043
61.048104
81.018044
107.41551
138.64534
172.2626
208.70327
248.53184
285.55244
316.70517
342.47943
363.70503
381.18764
395.60887
407.52033
417.37815
425.563
432.38597
438.09853
442.90338
446.9642
450.4136
453.35938
455.88949
458.07588
42.467917
42.596157
43.053646
43.772336
45.207348
49.404037
60.98229
80.931715
107.33288
138.58009
172.21691
208.67714
248.51791
285.53723
316.68762
342.46018
363.68458
381.16638
395.58703
407.49807
417.35557
425.54021
432.36305
438.07552
442.88033
446.94115
450.39057
453.33639
455.86655
458.05301
42.467078
42.595168
43.051811
43.76889
45.199258
49.377728
60.916523
80.845268
107.2501
138.51473
172.17121
208.65102
248.50395
285.52192
316.66994
342.44077
363.66394
381.14491
395.56498
407.47558
417.33277
425.51718
432.33988
438.05227
442.85704
446.91786
450.3673
453.31316
455.84337
458.0299
42.46624
42.59418
43.049975
43.765445
45.191197
49.351481
60.850804
80.758717
107.16718
138.44929
172.12549
208.62493
248.48998
285.50653
316.65214
342.42122
363.64315
381.12329
395.54277
407.45293
417.3098
425.494
432.31655
438.02886
442.83359
446.8944
450.34386
453.28976
455.82003
458.00663
42.465403
42.593192
43.04814
43.762007
45.183146
49.325296
60.785116
80.672045
107.0841
138.38376
172.07976
208.59886
248.47599
285.49105
316.63421
342.40152
363.62219
381.10149
395.52037
407.43008
417.28663
425.47061
432.29302
438.00524
442.80993
446.87073
450.32021
453.26615
455.79647
457.98314
42.464567
42.592204
43.046305
43.75857
45.175104
49.299191
60.719483
80.58527
107.00087
138.31815
172.03402
208.57282
248.46199
285.47549
316.61617
342.38168
363.60109
381.07953
395.49782
407.40708
417.26331
425.44706
432.26933
437.98146
442.78611
446.84691
450.29641
453.24238
455.77276
457.9595
42.463732
42.591217
43.04447
43.755134
45.167071
49.273136
60.653896
80.498377
106.9175
138.25245
171.98827
208.54681
248.44795
285.45984
316.59798
342.36167
363.57979
381.05737
395.47505
407.38385
417.23975
425.42327
432.24539
437.95743
442.76204
446.82283
450.27235
453.21837
455.7488
457.93561
42.462898
42.590231
43.042636
43.7517
45.159048
49.247169
60.588347
80.411377
106.83397
138.18666
171.94249
208.52081
248.4339
285.44409
316.57967
342.34152
363.55834
381.03505
395.45211
407.36046
417.21603
425.39932
432.22129
437.93325
442.73781
446.79859
450.24813
453.19419
455.72468
457.91156
42.462064
42.589245
43.040801
43.748267
45.151044
49.221261
60.52286
80.324265
106.7503
138.12078
171.89671
208.49484
248.41982
285.42826
316.56124
342.32122
363.53672
381.01255
395.42899
407.33687
417.1921
425.37516
432.19698
437.90884
442.71336
446.77414
450.22369
453.16979
455.70034
457.88729
42.461232
42.588259
43.038967
43.744836
45.143066
49.195419
60.45742
80.23704
106.66647
138.05482
171.85092
208.46889
248.40573
285.41234
316.54269
342.30078
363.51496
380.9899
395.40571
407.31313
417.16802
425.35085
432.17251
437.88429
442.68876
446.74953
450.1991
453.14524
455.67585
457.86287
42.460401
42.587274
43.037133
43.741406
45.135098
49.16966
60.392023
80.14971
106.5825
137.98878
171.80512
208.44297
248.39161
285.39633
316.524
342.28018
363.493
380.96704
395.38221
407.28915
417.14369
425.32628
432.14779
437.85947
442.6639
446.72465
450.17425
453.12043
455.6511
457.83819
42.459571
42.586289
43.035299
43.737978
45.12714
49.14395
60.326696
80.062263
106.49838
137.92265
171.75931
208.41708
248.37747
285.38024
316.50519
342.25943
363.4709
380.94402
395.35856
407.26502
417.11922
425.30157
432.12292
437.8345
442.63889
446.69963
450.14925
453.09547
455.62619
457.81335
42.458743
42.585305
43.033465
43.734552
45.119192
49.118331
60.261414
79.974715
106.4141
137.85643
171.7135
208.39122
248.36331
285.36405
316.48625
342.23854
363.44863
380.92083
395.33472
407.24069
417.09454
425.27665
432.09783
437.80932
442.61366
446.67439
450.12402
453.07029
455.60107
457.7883
42.457915
42.584321
43.031632
43.731135
45.111255
49.092771
60.196184
79.887051
106.32968
137.79014
171.66769
208.36538
248.34914
285.34779
316.46721
342.21752
363.42622
380.8975
395.31073
407.21622
417.06971
425.25158
432.0726
437.78399
442.58828
446.649
450.09865
453.04495
455.5758
457.76311
42.457089
42.58334
43.0298
43.72772
45.103338
49.067279
60.131028
79.799281
106.24511
137.72376
171.62186
208.33957
248.33494
285.33143
316.44802
342.19632
363.40363
380.87395
395.28652
407.19151
417.04465
425.22626
432.04711
437.75841
442.56264
446.62335
450.07302
453.01936
455.55027
457.73765
42.456264
42.582359
43.02797
43.724308
45.095446
49.041871
60.065919
79.711402
106.16038
137.65729
171.57603
208.31378
248.32072
285.31498
316.42872
342.175
363.38088
380.85026
395.26216
407.16665
417.01943
425.20079
432.02148
437.73267
442.53686
446.59756
450.04724
452.99363
455.52459
457.71204
42.45544
42.581379
43.02614
43.720901
45.087565
49.016512
60.000867
79.623411
106.07551
137.59074
171.53019
208.28801
248.30647
285.29844
316.40929
342.15351
363.35797
380.82638
395.2376
407.14159
416.994
425.1751
431.99563
437.70672
442.51085
446.57154
450.02124
452.96766
455.49868
457.68622
42.454617
42.580399
43.024311
43.717496
45.079694
48.991247
59.935892
79.535318
105.99047
137.52411
171.48433
208.26227
248.29219
285.28181
316.38973
342.13189
363.3349
380.80235
395.21289
407.11638
416.96842
425.14927
431.96962
437.68061
442.48469
446.54536
449.99508
452.94155
455.47263
457.66024
42.453795
42.57942
43.022486
43.714094
45.071833
48.966039
59.870966
79.44711
105.90529
137.45739
171.43848
208.23655
248.27789
285.26507
316.37003
342.11009
363.31164
380.77811
395.18795
407.09092
416.94259
425.12318
431.94336
437.65424
442.45827
446.51892
449.96866
452.91517
455.44631
457.63399
42.452974
42.578441
43.020662
43.710692
45.063982
48.9409
59.806104
79.358802
105.81994
137.39058
171.39261
208.21085
248.26355
285.24824
316.3502
342.08815
363.28823
380.75371
395.16287
407.06532
416.91661
425.09694
431.91694
437.62772
442.43169
446.49233
449.94209
452.88864
455.41984
457.6076
42.452154
42.577462
43.018838
43.707293
45.056154
48.915846
59.741318
79.270381
105.73444
137.32368
171.34674
208.18517
248.24917
285.2313
316.33023
342.06604
363.26464
380.72913
395.13758
407.03951
416.89042
425.07048
431.89031
437.60098
442.40489
446.46552
449.91529
452.86188
455.39315
457.58098
42.451335
42.576484
43.017014
43.703896
45.048349
48.89084
59.676586
79.181855
105.64879
137.25669
171.30086
208.15951
248.23476
285.21426
316.31013
342.0438
363.24091
380.70439
395.11214
407.01355
416.86408
425.04388
431.86353
437.57409
442.37795
446.43856
449.88835
452.83498
455.3663
457.55422
42.450517
42.575506
43.01519
43.700501
45.040556
48.865931
59.611924
79.093225
105.56296
137.18962
171.25496
208.13387
248.22031
285.19711
316.28987
342.02137
363.21697
380.67944
395.08647
406.98735
416.8375
425.01702
431.83649
437.54693
442.35074
446.41133
449.86114
452.80781
455.3392
457.52719
42.4497
42.574528
43.013367
43.697107
45.032772
48.841079
59.547339
79.004483
105.47698
137.12246
171.20906
208.10824
248.20582
285.17985
316.26948
341.99879
363.19287
380.65433
395.06065
406.96099
416.81076
424.99001
431.8093
437.51963
442.32338
446.38396
449.83378
452.78049
455.31194
457.50001
42.448885
42.573551
43.011544
43.693716
45.025
48.816295
59.48281
78.915642
105.39084
137.0552
171.16314
208.08264
248.19128
285.16248
316.24894
341.97604
363.1686
380.62903
395.03463
406.93443
416.78381
424.96278
431.78189
437.49211
442.2958
446.35636
449.80619
452.75295
455.28446
457.47262
42.44807
42.572574
43.009721
43.690333
45.017238
48.791598
59.418359
78.82669
105.30453
136.98785
171.11722
208.05705
248.17671
285.145
316.22826
341.95314
363.14416
380.60357
395.00844
406.90771
416.7567
424.9354
431.75432
437.46443
442.26806
446.3286
449.77845
452.72525
455.25683
457.44506
42.447257
42.571597
43.007899
43.686953
45.009498
48.76695
59.353985
78.737637
105.21806
136.92041
171.07128
208.03147
248.16208
285.12739
316.20742
341.93005
363.11952
380.57788
394.98202
406.88075
416.72933
424.90776
431.72649
437.43649
442.24005
446.30058
449.75045
452.69729
455.22893
457.41724
42.446445
42.570621
43.006077
43.683578
45.001782
48.742397
59.289672
78.64848
105.13142
136.85288
171.02535
208.00591
248.1474
285.10966
316.18643
341.9068
363.09472
380.55204
394.95545
406.85363
416.70182
424.87996
431.69851
437.40839
442.2119
446.27241
449.72229
452.66918
455.20088
457.38927
42.445634
42.569645
43.004256
43.680208
44.994078
48.717904
59.225441
78.559214
105.04461
136.78526
170.9794
207.98037
248.13268
285.09182
316.16529
341.88338
363.06973
380.526
394.92867
406.82631
416.67409
424.85196
431.67032
437.38008
442.18352
446.24402
449.69391
452.64084
455.17261
457.36108
42.444824
42.568669
43.002435
43.676839
44.986384
48.693477
59.161289
78.469851
104.95764
136.71754
170.93345
207.95484
248.1179
285.07385
316.144
341.8598
363.04458
380.4998
394.90173
406.79882
416.64621
424.82379
431.64196
437.35161
442.15499
446.21546
449.66538
452.61235
455.14418
457.33274
42.444015
42.567694
43.000614
43.673473
44.978701
48.66914
59.097201
78.38038
104.87049
136.64973
170.88748
207.92932
248.10306
285.05574
316.12253
341.83602
363.01921
380.47337
394.87456
406.77109
416.61807
424.79537
431.61335
437.32288
442.1262
446.18665
449.63658
452.5836
455.11549
457.30413
42.443208
42.566719
42.998794
43.670109
44.97103
48.644852
59.033201
78.29081
104.78317
136.58183
170.84151
207.90382
248.08817
285.03752
316.10091
341.81207
362.99368
380.44678
394.84723
406.7432
416.58978
424.7668
431.58459
437.29399
442.09725
446.15769
449.60764
452.55469
455.08665
457.27538
42.442404
42.565744
42.996974
43.666747
44.963379
48.620658
58.969282
78.201138
104.69567
136.51383
170.79553
207.87832
248.07322
285.01916
316.07912
341.78794
362.96795
380.41998
394.81968
406.7151
416.56128
424.738
431.5556
437.26489
442.06808
446.1285
449.57846
452.52556
455.05759
457.2464
42.441601
42.564769
42.995154
43.663387
44.955753
48.596527
58.905431
78.11136
104.608
136.44573
170.74955
207.85284
248.05821
285.00067
316.05717
341.76364
362.94205
380.39301
394.79196
406.68683
416.5326
424.70904
431.52645
437.23562
442.03875
446.09915
449.54913
452.49627
455.02837
457.21726
42.440799
42.563795
42.993336
43.66003
44.948139
48.572458
58.841673
78.021488
104.52014
136.37754
170.70357
207.82738
248.04314
284.98203
316.03504
341.73914
362.91593
380.36582
394.76401
406.65832
416.50368
424.67983
431.49704
437.20609
442.00916
446.06954
449.51953
452.46672
454.99888
457.18786
42.439998
42.562822
42.99152
43.656675
44.940536
48.548485
58.777998
77.93151
104.43211
136.30925
170.65759
207.80194
248.028
284.96326
316.01275
341.71446
362.88964
380.33846
394.7359
406.62965
416.4746
424.65046
431.46748
437.1764
441.97941
446.03977
449.48978
452.43702
454.96924
457.15831
42.439199
42.56185
42.989705
43.653322
44.932944
48.524562
58.714394
77.841436
104.3439
136.24087
170.61161
207.77651
248.0128
284.94434
315.99028
341.68959
362.86315
380.31089
394.70757
406.60076
416.4453
424.62087
431.43769
437.14649
441.94943
446.00978
449.45981
452.40708
454.93938
457.12853
42.438401
42.560878
42.98789
43.649977
44.925364
48.500725
58.650887
77.751264
104.2555
136.17237
170.56562
207.7511
247.99753
284.92529
315.96764
341.66455
362.83648
380.28314
394.67907
406.5717
416.41583
424.59112
431.40775
437.11643
441.91931
445.97963
449.42968
452.377
454.90936
457.0986
42.437605
42.559906
42.986078
43.646637
44.917805
48.47696
58.587467
77.660989
104.16692
136.10379
170.51964
207.72571
247.98219
284.90608
315.94481
341.63929
362.80959
380.25517
394.65034
406.5424
416.38612
424.56111
431.37754
437.0861
441.88891
445.94922
449.39928
452.34665
454.87908
457.06841
42.43681
42.558934
42.984268
43.643302
44.910268
48.453249
58.52412
77.570623
104.07814
136.03511
170.47365
207.70034
247.96678
284.88671
315.9218
341.61385
362.78252
380.22702
394.62143
406.51293
416.35624
424.53095
431.34718
437.05562
441.85837
445.91866
449.36873
452.31615
454.84865
457.03806
42.436016
42.557962
42.982459
43.639971
44.902746
48.429642
58.460872
77.480156
103.98917
135.96631
170.42767
207.67499
247.95128
284.86718
315.89859
341.5882
362.75524
380.19865
394.59231
406.48325
416.32615
424.50057
431.31661
437.02492
441.8276
445.88787
449.33797
452.28543
454.818
457.0075
42.435223
42.556991
42.98065
43.636642
44.895234
48.406084
58.397714
77.389594
103.9
135.8974
170.38169
207.64966
247.93571
284.84749
315.8752
341.56236
362.72777
380.1701
394.56302
406.4534
416.2959
424.47003
431.28587
436.99407
441.79669
445.85694
449.30705
452.25456
454.7872
456.97679
42.434432
42.556019
42.978842
43.633316
44.887734
48.382606
58.334633
77.29894
103.81064
135.8284
170.33572
207.62434
247.92004
284.82761
315.85157
341.53627
362.70005
380.14131
394.53346
406.42329
416.26538
424.43922
431.25487
436.96294
441.76549
445.82573
449.27586
452.22341
454.75612
456.94581
42.433643
42.555048
42.977034
43.629993
44.880246
48.359206
58.271654
77.208186
103.72107
135.75929
170.28975
207.59906
247.90428
284.80755
315.82775
341.50999
362.67213
380.11233
394.50374
406.39301
416.2347
424.40825
431.22371
436.93166
441.73416
445.79437
449.24452
452.19212
454.72491
456.91468
42.432854
42.554077
42.975227
43.626672
44.872778
48.335858
58.208768
77.117345
103.6313
135.69006
170.2438
207.5738
247.88843
284.7873
315.8037
341.48348
362.644
380.08312
394.4738
406.36252
416.2038
424.37707
431.19233
436.90017
441.7026
445.76279
449.21296
452.16061
454.69347
456.88333
42.432067
42.553106
42.97342
43.623353
44.86533
48.312611
58.145962
77.026411
103.54132
135.62071
170.19785
207.54857
247.87249
284.76687
315.77944
341.45675
362.61565
380.05372
394.44367
406.33185
416.17274
424.34572
431.1608
436.86852
441.67089
445.73107
449.18126
452.12896
454.66189
456.85184
42.431282
42.552135
42.971614
43.620037
44.8579
48.289421
58.08326
76.935384
103.45113
135.55126
170.15191
207.52337
247.85643
284.74621
315.75493
341.42976
362.58705
380.02407
394.41328
406.30092
416.14141
424.31411
431.129
436.8366
441.63891
445.69907
449.14929
452.09703
454.63004
456.82008
42.430498
42.551164
42.969808
43.616723
44.850481
48.266299
58.020656
76.844271
103.36073
135.48169
170.10598
207.49821
247.84027
284.72534
315.73018
341.40254
362.55823
379.99421
394.3827
406.26981
416.10991
424.28234
431.09705
436.80453
441.60678
445.66694
449.11717
452.06497
454.59804
456.78818
42.429716
42.550193
42.968003
43.613412
44.843073
48.243268
57.958134
76.753066
103.2701
135.412
170.06007
207.47309
247.824
284.70425
315.70518
341.37507
362.52916
379.96411
394.35189
406.23847
416.07819
424.25034
431.06486
436.77223
441.57443
445.63457
449.08482
452.03267
454.56582
456.75606
42.428935
42.549222
42.966198
43.610107
44.835677
48.220287
57.895719
76.661774
103.17926
135.34218
170.01418
207.44802
247.80761
284.68292
315.67992
341.34734
362.49985
379.93379
394.32088
406.20695
416.04629
424.21818
431.03252
436.73978
441.54192
445.60205
449.05233
452.00024
454.53346
456.72379
42.428155
42.548253
42.964394
43.606809
44.828301
48.197397
57.833405
76.5704
103.0882
135.27224
169.96832
207.42301
247.79109
284.66133
315.65436
341.31932
362.47027
379.9032
394.28959
406.17515
416.01411
424.18574
430.9999
436.70706
441.50914
445.56926
449.01957
451.96752
454.50082
456.69125
42.427377
42.547284
42.96259
43.603516
44.820942
48.174576
57.771177
76.478935
102.9969
135.20218
169.92248
207.39807
247.77445
284.63948
315.62853
341.29105
362.44044
379.87239
394.25811
406.14317
415.98177
424.15314
430.96713
436.67418
441.47622
445.53633
448.98666
451.93467
454.46805
456.65857
42.426601
42.546315
42.960786
43.600227
44.813604
48.15181
57.709057
76.387392
102.90538
135.13199
169.87665
207.37321
247.75768
284.61735
315.6024
341.26248
362.41034
379.84131
394.22637
406.11094
415.94919
424.12031
430.93413
436.64108
441.44306
445.50317
448.95353
451.90159
454.43505
456.62566
42.425826
42.545347
42.958984
43.596941
44.806278
48.129148
57.647043
76.295769
102.81361
135.06165
169.83086
207.34844
247.74076
284.59493
315.57597
341.23363
362.37999
379.81002
394.19444
406.07854
415.91644
424.08731
430.90098
436.60782
441.40977
445.46987
448.92025
451.86837
454.40191
456.59262
42.425054
42.544378
42.957181
43.593658
44.798963
48.106537
57.585118
76.204061
102.72162
134.99118
169.78508
207.32378
247.72369
284.57219
315.54919
341.20447
362.34934
379.77843
394.16221
406.04584
415.8834
424.05404
430.86754
436.57429
441.37619
445.43629
448.88671
451.83489
454.3685
456.55931
42.424284
42.543409
42.955382
43.590377
44.79166
48.084002
57.523301
76.112279
102.62937
134.92058
169.73933
207.29925
247.70647
284.54911
315.52208
341.175
362.31842
379.74661
394.12978
406.01296
415.85019
424.0206
430.83395
436.54062
441.34247
445.40257
448.85302
451.80126
454.33495
456.52586
42.423515
42.54244
42.953584
43.587099
44.784376
48.061551
57.461595
76.020419
102.53688
134.84983
169.6936
207.27486
247.68909
284.52568
315.4946
341.14522
362.2872
379.71451
394.09709
405.97983
415.81674
423.98693
430.80013
436.50671
441.30853
445.36863
448.81911
451.76741
454.30119
456.49219
42.422748
42.541471
42.951786
43.583824
44.777106
48.039151
57.399981
75.928483
102.44414
134.77892
169.64789
207.25065
247.67155
284.50186
315.46678
341.11513
362.25573
379.68218
394.06419
405.94651
415.78312
423.95309
430.76615
436.47265
441.27444
445.33454
448.78506
451.73342
454.26728
456.45839
42.421983
42.540501
42.949989
43.580551
44.769862
48.016848
57.338476
75.836477
102.35114
134.70787
169.6022
207.22663
247.65383
284.47761
315.43855
341.0847
362.22394
379.64955
394.03099
405.9129
415.74921
423.91897
430.73189
436.43831
441.24007
445.30018
448.75074
451.69916
454.2331
456.42431
42.421219
42.539532
42.948195
43.577281
44.762629
47.994608
57.277087
75.744398
102.25789
134.63666
169.5565
207.20283
247.63593
284.45292
315.40994
341.05397
362.1919
379.6167
393.9976
405.87911
415.71512
423.88468
430.69748
436.40383
441.20555
445.26568
448.71627
451.66476
454.19879
456.3901
42.420457
42.538562
42.946403
43.574014
44.755407
47.972427
57.215792
75.652251
102.16436
134.56528
169.51079
207.1793
247.61786
284.42775
315.38092
341.02292
362.15958
379.58359
393.96396
405.84508
415.68081
423.85017
430.66284
436.36912
441.17082
445.23095
448.68159
451.63014
454.16426
456.35567
42.419697
42.537592
42.944611
43.57075
44.748198
47.950347
57.154607
75.560039
102.07058
134.49373
169.46504
207.15606
247.59962
284.40205
315.35152
340.99159
362.12702
379.55027
393.93013
405.81087
415.64632
423.8155
430.62804
436.33425
441.13593
445.19608
448.64676
451.59538
454.12958
456.3211
42.418939
42.536622
42.94282
43.567496
44.741005
47.928318
57.09354
75.46776
101.97651
134.42202
169.41922
207.13312
247.58121
284.37577
315.32171
340.95996
362.0942
379.5167
393.89604
405.77639
415.61157
423.78055
430.59298
436.29912
441.10078
445.16095
448.61167
451.56036
454.09465
456.28627
42.418182
42.535651
42.94103
43.564246
44.733828
47.906368
57.032572
75.375419
101.88218
134.35012
169.37332
207.11052
247.56265
284.3489
315.29156
340.92811
362.0612
379.48296
393.86179
405.74177
415.57667
423.74546
430.55777
436.26385
441.06549
445.12567
448.57644
451.5252
454.05958
456.2513
42.417427
42.534681
42.93924
43.561002
44.726672
47.884498
56.971713
75.28302
101.78755
134.27804
169.32729
207.08826
247.54397
284.32139
315.26109
340.89605
362.02803
379.44904
393.82735
405.70694
415.54156
423.71016
430.52235
436.22836
441.02998
445.09018
448.54099
451.48982
454.02429
456.21611
42.416674
42.53371
42.93745
43.557761
44.719532
47.862681
56.910975
75.190569
101.69263
134.20577
169.28109
207.06631
247.52519
284.29327
315.23039
340.86385
361.99473
379.415
393.79278
405.67197
415.50631
423.67471
430.48677
436.19273
440.99433
445.05454
448.5054
451.4543
453.98885
456.18078
42.415923
42.532738
42.935662
43.554522
44.712404
47.840959
56.850338
75.098062
101.59742
134.13332
169.23469
207.04461
247.50637
284.26458
315.19955
340.83156
361.96134
379.38083
393.75805
405.63682
415.47085
423.63904
430.45097
436.15685
440.95842
445.01865
448.46956
451.41852
453.95317
456.1452
42.415173
42.531766
42.933873
43.551286
44.705287
47.819302
56.789813
75.005449