/*--------------------------------*- C++ -*----------------------------------*\
| =========                 |                                                 |
| \\      /  F ield         | OpenFOAM: The Open Source CFD Toolbox           |
|  \\    /   O peration     | Version:  v2012                                 |
|   \\  /    A nd           | Website:  www.openfoam.com                      |
|    \\/     M anipulation  |                                                 |
\*---------------------------------------------------------------------------*/
FoamFile
{
    version     2.0;
    format      ascii;
    class       volVectorField;
    location    "350";
    object      U;
}
// * * * * * * * * * * * * * * * * * * * * * * * * * * * * * * * * * * * * * //

dimensions      [0 1 -1 0 0 0 0];


internalField   nonuniform List<vector> 
24000
(
(26.234716 -0.0020283489 0)
(26.417791 -0.0059278614 0)
(26.644334 -0.0067320837 0)
(26.798332 -0.0047570709 0)
(27.00296 -0.0023072924 0)
(27.420533 -0.0091601891 0)
(28.327719 -0.02878257 0)
(29.844923 -0.048006508 0)
(31.723643 -0.057226918 0)
(33.652702 -0.061087047 0)
(35.183739 -0.061820547 0)
(35.939588 -0.05941893 0)
(35.455597 -0.055971607 0)
(33.504298 -0.051532631 0)
(30.567291 -0.045908006 0)
(27.139557 -0.039521112 0)
(23.58922 -0.033089719 0)
(20.15178 -0.027087003 0)
(16.962242 -0.021742756 0)
(14.089973 -0.01701548 0)
(11.558112 -0.012921968 0)
(9.3587067 -0.0094623415 0)
(7.4676207 -0.0066391588 0)
(5.8536795 -0.0044314246 0)
(4.4838057 -0.0027847166 0)
(3.325836 -0.0016189519 0)
(2.3499875 -0.00084223961 0)
(1.5295145 -0.00036373829 0)
(0.84087984 -0.00010979039 0)
(0.26365267 -4.5373976e-06 0)
(26.22864 -0.0023178191 0)
(26.412462 -0.0073325696 0)
(26.640992 -0.010950221 0)
(26.799498 -0.013799194 0)
(27.011355 -0.017636804 0)
(27.438674 -0.022855097 0)
(28.350492 -0.022528507 0)
(29.865158 -0.017136045 0)
(31.739598 -0.015202154 0)
(33.664902 -0.014502747 0)
(35.19623 -0.015145343 0)
(35.95839 -0.016078801 0)
(35.488262 -0.016746897 0)
(33.55407 -0.016855464 0)
(30.634083 -0.016729521 0)
(27.22306 -0.016104407 0)
(23.689772 -0.014999014 0)
(20.270278 -0.013391818 0)
(17.098949 -0.01140895 0)
(14.242953 -0.0092608207 0)
(11.722395 -0.0071658183 0)
(9.5268333 -0.0052857239 0)
(7.6311356 -0.0037108249 0)
(6.0046833 -0.0024681535 0)
(4.6160159 -0.0015407999 0)
(3.4350355 -0.00088709921 0)
(2.4340047 -0.00045473003 0)
(1.587935 -0.00019155173 0)
(0.87465649 -5.511261e-05 0)
(0.27471326 -1.3058306e-06 0)
(26.223497 -0.0025503535 0)
(26.40713 -0.0082407402 0)
(26.63484 -0.01284197 0)
(26.79083 -0.016553626 0)
(26.997387 -0.020254722 0)
(27.41447 -0.022488237 0)
(28.314578 -0.017233188 0)
(29.822917 -0.0083107167 0)
(31.695032 -0.0044284721 0)
(33.619389 -0.0023410822 0)
(35.151908 -0.0018877852 0)
(35.916469 -0.0017579071 0)
(35.450588 -0.0016524381 0)
(33.521866 -0.00086527311 0)
(30.606359 0.00019509248 0)
(27.197604 0.0014003529 0)
(23.663511 0.0024172229 0)
(20.239499 0.0030607462 0)
(17.060252 0.0032707937 0)
(14.194616 0.0031003858 0)
(11.665239 0.0026761697 0)
(9.4638613 0.002136542 0)
(7.5665069 0.0015881145 0)
(5.9426474 0.0011037065 0)
(4.5601659 0.00071296013 0)
(3.3879588 0.00042053947 0)
(2.3972346 0.00021976008 0)
(1.5620739 9.4269821e-05 0)
(0.85956962 2.7763047e-05 0)
(0.26973126 6.6591543e-07 0)
(26.217701 -0.0027796729 0)
(26.401089 -0.0090563543 0)
(26.628269 -0.014263351 0)
(26.783303 -0.018272202 0)
(26.988283 -0.021483403 0)
(27.402918 -0.022211298 0)
(28.299911 -0.014869766 0)
(29.805646 -0.0041291782 0)
(31.676531 0.0010858162 0)
(33.599686 0.0039724654 0)
(35.132423 0.0045000356 0)
(35.898439 0.0042157497 0)
(35.435592 0.0028447594 0)
(33.511563 0.0017665897 0)
(30.601315 0.00071956552 0)
(27.196996 -6.3450618e-05 0)
(23.666568 -0.00061070832 0)
(20.246228 -0.0009645106 0)
(17.071046 -0.0011288973 0)
(14.209671 -0.0011224773 0)
(11.684034 -0.00099762774 0)
(9.4851766 -0.00081243561 0)
(7.588742 -0.00061270782 0)
(5.9641936 -0.0004292687 0)
(4.5796743 -0.00027910152 0)
(3.4044631 -0.0001657375 0)
(2.4101599 -8.6923066e-05 0)
(1.5711855 -3.7520641e-05 0)
(0.86489807 -1.1100844e-05 0)
(0.27149623 -3.9517287e-07 0)
(26.211684 -0.0029676909 0)
(26.394724 -0.0096272825 0)
(26.621339 -0.015088842 0)
(26.775556 -0.019044526 0)
(26.979392 -0.021761765 0)
(27.392245 -0.021722792 0)
(28.286101 -0.013597866 0)
(29.788782 -0.002240465 0)
(31.657344 0.0036144337 0)
(33.578544 0.0071221301 0)
(35.110347 0.0079667505 0)
(35.875917 0.0076533346 0)
(35.413408 0.0063831573 0)
(33.491311 0.0050868466 0)
(30.583726 0.00389018 0)
(27.182372 0.0029232843 0)
(23.654365 0.0022074348 0)
(20.235621 0.0016704518 0)
(17.061326 0.0012600914 0)
(14.200332 0.00093872125 0)
(11.674887 0.00068380179 0)
(9.4763027 0.00048310574 0)
(7.5803795 0.0003285338 0)
(5.9566212 0.00021321125 0)
(4.5731306 0.00013074909 0)
(3.3991061 7.4168398e-05 0)
(2.4060616 3.7556116e-05 0)
(1.5683443 1.5789879e-05 0)
(0.86325606 4.6672921e-06 0)
(0.27095749 1.3232459e-07 0)
(26.205463 -0.0031093502 0)
(26.388164 -0.010018644 0)
(26.614352 -0.015583474 0)
(26.768074 -0.019431021 0)
(26.971242 -0.021831803 0)
(27.382835 -0.021436507 0)
(28.273959 -0.013006215 0)
(29.773784 -0.0013849214 0)
(31.639852 0.0049038789 0)
(33.559447 0.0088713912 0)
(35.090237 0.009798822 0)
(35.855173 0.0095140729 0)
(35.392541 0.0080752731 0)
(33.471726 0.0064844563 0)
(30.566266 0.0049318136 0)
(27.167311 0.0035896752 0)
(23.641687 0.002530565 0)
(20.225182 0.0017307641 0)
(17.052953 0.0011515113 0)
(14.19383 0.00074653166 0)
(11.670019 0.00047226727 0)
(9.4727945 0.00029154055 0)
(7.5779494 0.00017525715 0)
(5.9550055 0.00010209657 0)
(4.5721026 5.7092373e-05 0)
(3.3984842 3.0159954e-05 0)
(2.4057091 1.4498609e-05 0)
(1.5681625 5.809218e-06 0)
(0.86317778 1.6340503e-06 0)
(0.27093932 6.2696897e-09 0)
(26.199109 -0.0032110332 0)
(26.381496 -0.010277638 0)
(26.607358 -0.015876139 0)
(26.760743 -0.019629 0)
(26.963416 -0.021843946 0)
(27.373857 -0.021280488 0)
(28.262299 -0.012726919 0)
(29.759156 -0.00093909073 0)
(31.622782 0.0056344294 0)
(33.540787 0.0098460114 0)
(35.070414 0.010827689 0)
(35.834409 0.010556524 0)
(35.371126 0.0090785774 0)
(33.450943 0.0073559085 0)
(30.547081 0.0056587543 0)
(27.15021 0.0041752124 0)
(23.626851 0.0029953103 0)
(20.212561 0.0020974438 0)
(17.042377 0.0014388035 0)
(14.185074 0.00096829236 0)
(11.662841 0.00063912881 0)
(9.4669689 0.00041275844 0)
(7.5732787 0.00025955497 0)
(5.9513209 0.00015775596 0)
(4.5692601 9.1584815e-05 0)
(3.3963605 4.9682442e-05 0)
(2.4041977 2.4338422e-05 0)
(1.5671719 9.9763421e-06 0)
(0.86262941 2.90269e-06 0)
(0.27076603 5.8865717e-08 0)
(26.192665 -0.0032824089 0)
(26.374769 -0.010449041 0)
(26.600383 -0.01605597 0)
(26.753522 -0.01974419 0)
(26.955778 -0.021855687 0)
(27.365107 -0.021211763 0)
(28.250909 -0.012606902 0)
(29.744764 -0.00070621399 0)
(31.60605 0.0060440252 0)
(33.522488 0.010382342 0)
(35.050894 0.011395915 0)
(35.813831 0.011136777 0)
(35.349669 0.0096271774 0)
(33.429825 0.0078278869 0)
(30.527336 0.0060395963 0)
(27.132424 0.0044661721 0)
(23.611294 0.0032070871 0)
(20.199256 0.0022446388 0)
(17.031213 0.0015366605 0)
(14.175863 0.0010306205 0)
(11.655353 0.00067736526 0)
(9.4609666 0.00043545897 0)
(7.5685379 0.00027273114 0)
(5.9476408 0.00016528534 0)
(4.5664658 9.5854926e-05 0)
(3.3943033 5.2251363e-05 0)
(2.4027526 2.5791038e-05 0)
(1.5662352 1.0595696e-05 0)
(0.86211555 3.0242829e-06 0)
(0.270605 4.8188517e-08 0)
(26.18616 -0.0033322692 0)
(26.368008 -0.010564343 0)
(26.593423 -0.016172891 0)
(26.746365 -0.019822312 0)
(26.948236 -0.021877429 0)
(27.356463 -0.021194781 0)
(28.239644 -0.012569195 0)
(29.730477 -0.00058927927 0)
(31.589474 0.0062722185 0)
(33.504346 0.010683592 0)
(35.031486 0.011723312 0)
(35.793283 0.011472278 0)
(35.328099 0.0099483489 0)
(33.40841 0.0081071247 0)
(30.507152 0.0062687845 0)
(27.114112 0.0046455953 0)
(23.595174 0.0033423569 0)
(20.185392 0.0023433701 0)
(17.019517 0.0016066558 0)
(14.166163 0.0010789031 0)
(11.647425 0.00070964595 0)
(9.4545769 0.00045626315 0)
(7.5634645 0.00028546081 0)
(5.9436827 0.00017255078 0)
(4.5634468 9.9591813e-05 0)
(3.3920715 5.369202e-05 0)
(2.4011793 2.6121044e-05 0)
(1.5652123 1.0644025e-05 0)
(0.86155292 3.1106729e-06 0)
(0.27042822 7.7866998e-08 0)
(26.179614 -0.0033675804 0)
(26.361226 -0.010644812 0)
(26.586473 -0.016255185 0)
(26.739244 -0.019883865 0)
(26.940741 -0.021908121 0)
(27.347873 -0.021209184 0)
(28.228446 -0.012579782 0)
(29.716248 -0.00054013882 0)
(31.572983 0.0063953934 0)
(33.486287 0.01085323 0)
(35.012138 0.011913696 0)
(35.772753 0.01166964 0)
(35.306463 0.010137169 0)
(33.386828 0.0082705378 0)
(30.486722 0.0064029856 0)
(27.095507 0.0047501235 0)
(23.578748 0.0034205734 0)
(20.171232 0.0023999387 0)
(17.007552 0.0016464571 0)
(14.156229 0.0011062238 0)
(11.639302 0.00072809797 0)
(9.4480306 0.00046857809 0)
(7.5582685 0.0002936685 0)
(5.9396311 0.00017802365 0)
(4.5603583 0.00010321642 0)
(3.3897897 5.6191914e-05 0)
(2.3995716 2.7681456e-05 0)
(1.5641673 1.135926e-05 0)
(0.8609783 3.2577927e-06 0)
(0.27024769 6.0170282e-08 0)
(26.173039 -0.0033933384 0)
(26.354429 -0.010704004 0)
(26.579528 -0.016318476 0)
(26.73214 -0.01993817 0)
(26.933269 -0.021946593 0)
(27.339312 -0.021242667 0)
(28.217286 -0.012617126 0)
(29.702049 -0.00053003829 0)
(31.556532 0.0064590411 0)
(33.468266 0.010950509 0)
(34.992815 0.012027758 0)
(35.75222 0.011787925 0)
(35.284772 0.01025026 0)
(33.36513 0.0083676968 0)
(30.46613 0.0064827047 0)
(27.076713 0.0048119296 0)
(23.562124 0.0034665266 0)
(20.156878 0.0024328083 0)
(16.995408 0.0016691992 0)
(14.146137 0.0011215142 0)
(11.631045 0.00073805995 0)
(9.4413723 0.00047483155 0)
(7.5529815 0.00029736256 0)
(5.9355075 0.00018001207 0)
(4.5572142 0.0001041294 0)
(3.3874666 5.6352103e-05 0)
(2.3979346 2.7561707e-05 0)
(1.5631033 1.1284015e-05 0)
(0.8603931 3.2689917e-06 0)
(0.27006379 7.4391045e-08 0)
(26.166444 -0.0034129749 0)
(26.347622 -0.010750324 0)
(26.572582 -0.016371266 0)
(26.725043 -0.019989466 0)
(26.925807 -0.021990919 0)
(27.330763 -0.021287484 0)
(28.206144 -0.012668927 0)
(29.687864 -0.0005416967 0)
(31.540101 0.0064879064 0)
(33.450263 0.01100485 0)
(34.973499 0.012096932 0)
(35.731676 0.01185954 0)
(35.263039 0.010318783 0)
(33.343354 0.0084261043 0)
(30.445433 0.0065308798 0)
(27.0578 0.0048495303 0)
(23.545378 0.0034948353 0)
(20.142408 0.0024534765 0)
(16.983161 0.0016839288 0)
(14.135957 0.001131773 0)
(11.622714 0.00074513424 0)
(9.4346555 0.00047968092 0)
(7.5476491 0.00030074738 0)
(5.9313493 0.00018240452 0)
(4.5540447 0.00010582926 0)
(3.3851252 5.7679413e-05 0)
(2.3962849 2.8457979e-05 0)
(1.5620311 1.1699656e-05 0)
(0.85980346 3.3462713e-06 0)
(0.26987849 5.9889919e-08 0)
(26.159832 -0.0034286872 0)
(26.340805 -0.010788845 0)
(26.565633 -0.016418099 0)
(26.717946 -0.020039101 0)
(26.918347 -0.022037702 0)
(27.322219 -0.021339094 0)
(28.195013 -0.01273176 0)
(29.673686 -0.00056878149 0)
(31.523679 0.006494954 0)
(33.432265 0.011034139 0)
(34.954182 0.012139055 0)
(35.71112 0.011902861 0)
(35.24127 0.010359685 0)
(33.321521 0.0084595685 0)
(30.424663 0.0065575537 0)
(27.038805 0.0048691993 0)
(23.528546 0.0035084766 0)
(20.127857 0.0024622699 0)
(16.970839 0.0016890697 0)
(14.125711 0.0011343958 0)
(11.614329 0.0007460463 0)
(9.4278937 0.00047955203 0)
(7.5422809 0.00029997605 0)
(5.9271637 0.00018132979 0)
(4.5508545 0.00010469759 0)
(3.3827688 5.6518376e-05 0)
(2.3946251 2.7552888e-05 0)
(1.5609524 1.1247022e-05 0)
(0.85921025 3.274289e-06 0)
(0.26969207 8.0019577e-08 0)
(26.153207 -0.003441891 0)
(26.333978 -0.010822644 0)
(26.558678 -0.016461569 0)
(26.710846 -0.020087832 0)
(26.910884 -0.022086227 0)
(27.313677 -0.02139464 0)
(28.18389 -0.012800436 0)
(29.659511 -0.00060458059 0)
(31.507259 0.0064896084 0)
(33.414266 0.011048458 0)
(34.93486 0.012165055 0)
(35.690549 0.011930238 0)
(35.219472 0.010385769 0)
(33.299645 0.0084806683 0)
(30.403842 0.0065749392 0)
(27.019755 0.004882643 0)
(23.511662 0.0035186405 0)
(20.113258 0.0024697901 0)
(16.958475 0.0016946004 0)
(14.115431 0.0011384296 0)
(11.605915 0.00074906927 0)
(9.4211107 0.00048186591 0)
(7.536897 0.00030185676 0)
(5.9229665 0.00018290082 0)
(4.5476562 0.00010599615 0)
(3.3804069 5.7676637e-05 0)
(2.3929614 2.8402205e-05 0)
(1.5598713 1.1660001e-05 0)
(0.85861572 3.3445668e-06 0)
(0.26950522 6.2116975e-08 0)
(26.146571 -0.0034533989 0)
(26.327143 -0.010853483 0)
(26.551717 -0.016503051 0)
(26.70374 -0.020136199 0)
(26.903417 -0.022136592 0)
(27.305133 -0.02145234 0)
(28.17277 -0.012870739 0)
(29.645338 -0.00064418052 0)
(31.490839 0.0064774548 0)
(33.396266 0.01105377 0)
(34.915532 0.012181173 0)
(35.669965 0.011947285 0)
(35.19765 0.010401719 0)
(33.277736 0.0084926011 0)
(30.382984 0.0065843954 0)
(27.000667 0.0048894702 0)
(23.49474 0.003523316 0)
(20.098623 0.0024727297 0)
(16.946079 0.0016962692 0)
(14.105123 0.0011392551 0)
(11.59748 0.00074934327 0)
(9.4143103 0.00048180261 0)
(7.5314998 0.00030155584 0)
(5.9187597 0.00018246234 0)
(4.5444511 0.00010551023 0)
(3.3780404 5.7111535e-05 0)
(2.3912948 2.794648e-05 0)
(1.5587884 1.1445794e-05 0)
(0.85802028 3.3131718e-06 0)
(0.26931809 7.3938276e-08 0)
(26.139924 -0.0034637158 0)
(26.3203 -0.010882363 0)
(26.544749 -0.016543143 0)
(26.696628 -0.02018384 0)
(26.895945 -0.022186509 0)
(27.296586 -0.021511297 0)
(28.161653 -0.012944504 0)
(29.631166 -0.00068830914 0)
(31.474417 0.0064597827 0)
(33.378261 0.011054278 0)
(34.896197 0.012192009 0)
(35.649368 0.01195866 0)
(35.175807 0.010412181 0)
(33.255802 0.0085000083 0)
(30.362098 0.0065905507 0)
(26.981552 0.0048943428 0)
(23.477793 0.0035272328 0)
(20.083966 0.0024758519 0)
(16.933666 0.0016987511 0)
(14.094803 0.0011411963 0)
(11.589036 0.00075090153 0)
(9.407504 0.00048305806 0)
(7.5260992 0.00030264407 0)
(5.9145511 0.00018341493 0)
(4.5412454 0.00010632978 0)
(3.3756738 5.7890022e-05 0)
(2.3896284 2.8529629e-05 0)
(1.5577058 1.1727403e-05 0)
(0.85742502 3.358574e-06 0)
(0.26913103 6.0280197e-08 0)
(26.133267 -0.0034732643 0)
(26.313448 -0.010910042 0)
(26.537773 -0.016582314 0)
(26.689509 -0.020230846 0)
(26.888466 -0.022236281 0)
(27.288038 -0.021570585 0)
(28.150538 -0.013019321 0)
(29.616993 -0.00073419093 0)
(31.457992 0.0064396194 0)
(33.360251 0.011050738 0)
(34.876855 0.01219775 0)
(35.628759 0.011964707 0)
(35.153944 0.010416942 0)
(33.233845 0.0085016376 0)
(30.341188 0.0065909731 0)
(26.962412 0.004893592 0)
(23.460822 0.0035256778 0)
(20.069286 0.0024738027 0)
(16.921232 0.001696409 0)
(14.084463 0.0011388249 0)
(11.580575 0.00074856373 0)
(9.4006841 0.00048090262 0)
(7.5206877 0.00030065376 0)
(5.9103343 0.00018165009 0)
(4.5380335 0.00010484032 0)
(3.3733029 5.6582565e-05 0)
(2.3879591 2.7581281e-05 0)
(1.5566214 1.1259363e-05 0)
(0.85682879 3.2805712e-06 0)
(0.26894367 8.0810651e-08 0)
(26.1266 -0.0034823763 0)
(26.306588 -0.010937033 0)
(26.530789 -0.016620762 0)
(26.682382 -0.020277345 0)
(26.880981 -0.022286805 0)
(27.279485 -0.02162977 0)
(28.139425 -0.01309263 0)
(29.602821 -0.00078064002 0)
(31.441565 0.0064186906 0)
(33.342236 0.011046383 0)
(34.857507 0.01220149 0)
(35.608139 0.011969234 0)
(35.132064 0.010420718 0)
(33.211869 0.0085031176 0)
(30.320261 0.0065922844 0)
(26.943257 0.0048946587 0)
(23.443838 0.0035267511 0)
(20.054597 0.0024749169 0)
(16.908792 0.0016975824 0)
(14.07412 0.0011399843 0)
(11.572112 0.00074974319 0)
(9.3938634 0.00048204438 0)
(7.5152764 0.00030179938 0)
(5.9061181 0.00018276143 0)
(4.5348224 0.00010585219 0)
(3.3709328 5.7558003e-05 0)
(2.3862905 2.832295e-05 0)
(1.5555375 1.1623408e-05 0)
(0.85623281 3.3358953e-06 0)
(0.26875638 6.0566835e-08 0)
(26.119924 -0.0034911884 0)
(26.299719 -0.010963511 0)
(26.523796 -0.016658469 0)
(26.675248 -0.020322858 0)
(26.873488 -0.022335801 0)
(27.270929 -0.021688856 0)
(28.128313 -0.01316823 0)
(29.588648 -0.00082906814 0)
(31.425133 0.0063960585 0)
(33.324218 0.011040631 0)
(34.838152 0.012203548 0)
(35.587509 0.011971818 0)
(35.110169 0.010422486 0)
(33.189877 0.0085025783 0)
(30.299319 0.0065915625 0)
(26.924088 0.0048936711 0)
(23.426842 0.0035257154 0)
(20.039898 0.0024738789 0)
(16.896341 0.0016966063 0)
(14.063767 0.0011391179 0)
(11.563641 0.00074897568 0)
(9.3870364 0.00048136968 0)
(7.5098601 0.00030115873 0)
(5.9018981 0.00018214733 0)
(4.5316088 0.00010528612 0)
(3.3685609 5.6967737e-05 0)
(2.3846208 2.7864979e-05 0)
(1.5544528 1.1411507e-05 0)
(0.8556365 3.3065736e-06 0)
(0.26856899 7.3846587e-08 0)
(26.11324 -0.0034998343 0)
(26.292843 -0.010989607 0)
(26.516796 -0.016695602 0)
(26.668106 -0.020367782 0)
(26.865989 -0.022384762 0)
(27.26237 -0.021747694 0)
(28.117203 -0.013243031 0)
(29.574475 -0.00087697829 0)
(31.4087 0.0063735241 0)
(33.306195 0.011033901 0)
(34.818793 0.012204471 0)
(35.56687 0.011973366 0)
(35.08826 0.01042333 0)
(33.167872 0.0085015605 0)
(30.278366 0.00659092 0)
(26.904911 0.0048933584 0)
(23.409841 0.003525886 0)
(20.025194 0.0024744105 0)
(16.883889 0.001697366 0)
(14.053416 0.0011399582 0)
(11.555173 0.00074985638 0)
(9.3802123 0.00048221729 0)
(7.5044471 0.00030201052 0)
(5.8976813 0.00018296867 0)
(4.5283979 0.00010603435 0)
(3.3661913 5.7712558e-05 0)
(2.3829527 2.8433901e-05 0)
(1.5533694 1.1685474e-05 0)
(0.85504086 3.3449879e-06 0)
(0.26838181 5.6438393e-08 0)
(26.106547 -0.0035084201 0)
(26.285958 -0.011015476 0)
(26.509787 -0.016732146 0)
(26.660956 -0.020412141 0)
(26.858483 -0.022433983 0)
(27.253806 -0.021806126 0)
(28.106093 -0.013316445 0)
(29.560302 -0.00092509192 0)
(31.392262 0.0063509786 0)
(33.288168 0.011027621 0)
(34.799427 0.012204545 0)
(35.546222 0.011973567 0)
(35.066338 0.010422127 0)
(33.145853 0.0084978984 0)
(30.2574 0.0065871293 0)
(26.885723 0.0048894446 0)
(23.392828 0.0035221162 0)
(20.01048 0.0024709042 0)
(16.871427 0.0016941359 0)
(14.043054 0.001137102 0)
(11.546695 0.00074729906 0)
(9.3733804 0.00048000484 0)
(7.4990276 0.00030005338 0)
(5.8934595 0.00018127714 0)
(4.5251833 0.00010463006 0)
(3.3638191 5.6484119e-05 0)
(2.3812829 2.75462e-05 0)
(1.5522849 1.1252353e-05 0)
(0.85444466 3.2773921e-06 0)
(0.26819447 7.9387557e-08 0)
(26.099845 -0.0035170364 0)
(26.279066 -0.011041187 0)
(26.502771 -0.016768084 0)
(26.653799 -0.020455472 0)
(26.850971 -0.022481162 0)
(27.245239 -0.021864067 0)
(28.094985 -0.013392159 0)
(29.546128 -0.00097446862 0)
(31.375822 0.0063271889 0)
(33.270137 0.011019599 0)
(34.780057 0.012203457 0)
(35.525565 0.011972982 0)
(35.044403 0.010420816 0)
(33.123822 0.0084948341 0)
(30.236426 0.0065848107 0)
(26.866528 0.0048877743 0)
(23.375812 0.0035212547 0)
(19.995765 0.0024706975 0)
(16.858965 0.0016944455 0)
(14.032694 0.0011377236 0)
(11.53822 0.00074815267 0)
(9.3665514 0.00048094626 0)
(7.493611 0.00030107215 0)
(5.8892403 0.00018230153 0)
(4.5219708 0.00010557727 0)
(3.3614486 5.7411665e-05 0)
(2.3796144 2.8254109e-05 0)
(1.5512012 1.1597067e-05 0)
(0.85384887 3.3253747e-06 0)
(0.26800725 5.6763352e-08 0)
(26.093136 -0.0035256975 0)
(26.272166 -0.011066645 0)
(26.495746 -0.016803613 0)
(26.646634 -0.02049847 0)
(26.843452 -0.022528961 0)
(27.23667 -0.021921664 0)
(28.083879 -0.013465626 0)
(29.531956 -0.0010230108 0)
(31.35938 0.0063040199 0)
(33.252104 0.011012333 0)
(34.760682 0.012202815 0)
(35.504901 0.011972444 0)
(35.022457 0.010419341 0)
(33.101782 0.0084913041 0)
(30.215444 0.0065817096 0)
(26.847329 0.0048849878 0)
(23.358792 0.0035189468 0)
(19.981046 0.0024687977 0)
(16.8465 0.0016928979 0)
(14.022331 0.0011364889 0)
(11.529742 0.00074715506 0)
(9.3597194 0.00048013727 0)
(7.4881917 0.00030035776 0)
(5.8850189 0.00018165147 0)
(4.5187567 0.00010499921 0)
(3.3590768 5.6825148e-05 0)
(2.377945 2.7804569e-05 0)
(1.550117 1.1390253e-05 0)
(0.85325284 3.2984614e-06 0)
(0.26781996 7.1124842e-08 0)
(26.086419 -0.0035344011 0)
(26.265259 -0.011091739 0)
(26.488714 -0.016838665 0)
(26.639463 -0.020541091 0)
(26.835927 -0.022576379 0)
(27.228095 -0.021978993 0)
(28.072773 -0.013538722 0)
(29.517782 -0.0010714661 0)
(31.342935 0.0062812986 0)
(33.234066 0.011005642 0)
(34.741302 0.012202137 0)
(35.484229 0.011972011 0)
(35.000499 0.010418211 0)
(33.079732 0.0084883766 0)
(30.194456 0.0065795961 0)
(26.828125 0.0048836328 0)
(23.34177 0.0035184364 0)
(19.966328 0.0024689174 0)
(16.834037 0.001693409 0)
(14.011971 0.0011371739 0)
(11.521268 0.00074793342 0)
(9.3528919 0.00048090856 0)
(7.4827769 0.00030114513 0)
(5.8808015 0.00018241361 0)
(4.515546 0.0001056937 0)
(3.3567079 5.751491e-05 0)
(2.3762777 2.8330047e-05 0)
(1.5490341 1.1643005e-05 0)
(0.85265759 3.3325486e-06 0)
(0.26763292 5.3761839e-08 0)
(26.079694 -0.0035431605 0)
(26.258345 -0.011116449 0)
(26.481675 -0.016873209 0)
(26.632284 -0.020583006 0)
(26.828395 -0.022621954 0)
(27.219518 -0.022035925 0)
(28.061669 -0.013613643 0)
(29.503608 -0.0011206492 0)
(31.326487 0.006257539 0)
(33.216025 0.010996624 0)
(34.721919 0.012199313 0)
(35.463549 0.011969382 0)
(34.97853 0.010414466 0)
(33.057671 0.0084823563 0)
(30.173459 0.0065739101 0)
(26.808915 0.0048783377 0)
(23.324742 0.0035137125 0)
(19.951602 0.0024648122 0)
(16.821567 0.0016898254 0)
(14.001603 0.0011341257 0)
(11.512785 0.00074527421 0)
(9.346057 0.00047865865 0)
(7.4773557 0.00029917915 0)
(5.876579 0.00018072904 0)
(4.5123313 0.00010430418 0)
(3.354336 5.6303232e-05 0)
(2.3746085 2.7456065e-05 0)
(1.5479501 1.1215621e-05 0)
(0.85206172 3.2685624e-06 0)
(0.2674457 7.8797594e-08 0)
(26.072962 -0.0035520241 0)
(26.251424 -0.011140788 0)
(26.474628 -0.016907354 0)
(26.625098 -0.020624874 0)
(26.820857 -0.0226683 0)
(27.210939 -0.022092311 0)
(28.050567 -0.013686136 0)
(29.489435 -0.0011694966 0)
(31.310036 0.0062346801 0)
(33.197981 0.010990057 0)
(34.70253 0.012198957 0)
(35.442861 0.011968944 0)
(34.956551 0.010413079 0)
(33.035602 0.008479123 0)
(30.152457 0.0065715169 0)
(26.789702 0.0048767614 0)
(23.307714 0.0035130689 0)
(19.936878 0.0024648836 0)
(16.809099 0.0016904344 0)
(13.991238 0.0011350179 0)
(11.504306 0.00074635605 0)
(9.3392249 0.00047977353 0)
(7.4719368 0.000300318 0)
(5.8723583 0.00018182822 0)
(4.509118 0.00010529059 0)
(3.351965 5.7246806e-05 0)
(2.3729397 2.8167832e-05 0)
(1.5468663 1.1559858e-05 0)
(0.85146594 3.3149834e-06 0)
(0.26725849 5.4563462e-08 0)
(26.066222 -0.0035609873 0)
(26.244495 -0.011164743 0)
(26.467573 -0.016940993 0)
(26.617905 -0.020666327 0)
(26.813313 -0.022713464 0)
(27.202355 -0.022148211 0)
(28.039465 -0.013759242 0)
(29.475261 -0.0012182523 0)
(31.293582 0.006211596 0)
(33.179933 0.010982484 0)
(34.683137 0.012197455 0)
(35.422166 0.011967178 0)
(34.93456 0.010410331 0)
(33.013524 0.0084743344 0)
(30.131449 0.0065673841 0)
(26.770486 0.0048731976 0)
(23.290683 0.003510208 0)
(19.922152 0.0024626096 0)
(16.796628 0.0016886669 0)
(13.98087 0.0011336583 0)
(11.495823 0.00074529606 0)
(9.3323885 0.00047894239 0)
(7.4665139 0.00029960183 0)
(5.868134 0.00018118662 0)
(4.5059017 0.00010472536 0)
(3.3495918 5.6670647e-05 0)
(2.3712693 2.7725747e-05 0)
(1.5457815 1.135841e-05 0)
(0.85086961 3.2913399e-06 0)
(0.26707112 7.0428347e-08 0)
(26.059475 -0.0035699469 0)
(26.237559 -0.011188344 0)
(26.460512 -0.016974317 0)
(26.610705 -0.020707557 0)
(26.805763 -0.022758091 0)
(27.193769 -0.022203779 0)
(28.028366 -0.013832334 0)
(29.461087 -0.0012666754 0)
(31.277127 0.0061890701 0)
(33.161883 0.010974791 0)
(34.663741 0.012195527 0)
(35.401464 0.011965344 0)
(34.912561 0.010407898 0)
(32.99144 0.0084701842 0)
(30.110439 0.006564342 0)
(26.75127 0.0048711532 0)
(23.273655 0.0035092249 0)
(19.90743 0.0024624226 0)
(16.784163 0.0016890098 0)
(13.970508 0.0011342578 0)
(11.487347 0.00074603691 0)
(9.3255596 0.00047970137 0)
(7.4610979 0.0003003897 0)
(5.8639158 0.00018195516 0)
(4.5026904 0.00010542545 0)
(3.3472224 5.7369499e-05 0)
(2.3696018 2.825853e-05 0)
(1.5446986 1.1612358e-05 0)
(0.85027435 3.3224655e-06 0)
(0.26688408 5.0583883e-08 0)
(26.052721 -0.0035787828 0)
(26.230616 -0.011211577 0)
(26.453443 -0.017007441 0)
(26.603498 -0.020748784 0)
(26.798207 -0.022803205 0)
(27.185179 -0.022258954 0)
(28.017267 -0.013903852 0)
(29.446912 -0.0013150047 0)
(31.260667 0.0061665168 0)
(33.143828 0.010967877 0)
(34.644339 0.012194167 0)
(35.380754 0.011963559 0)
(34.89055 0.010404869 0)
(32.969346 0.0084645764 0)
(30.089421 0.0065590676 0)
(26.732049 0.0048662185 0)
(23.256622 0.0035048516 0)
(19.892702 0.0024586644 0)
(16.77169 0.0016857756 0)
(13.960138 0.0011315311 0)
(11.478863 0.00074366303 0)
(9.3187223 0.00047768874 0)
(7.4556746 0.00029861608 0)
(5.8596914 0.00018041954 0)
(4.4994743 0.00010414719 0)
(3.3448494 5.6235093e-05 0)
(2.3679318 2.7432999e-05 0)
(1.5436141 1.1211352e-05 0)
(0.8496782 3.2676927e-06 0)
(0.26669678 7.7925249e-08 0)
(26.045959 -0.0035874515 0)
(26.223666 -0.011234484 0)
(26.446368 -0.017040291 0)
(26.596284 -0.020789548 0)
(26.790645 -0.022846831 0)
(27.176585 -0.022313662 0)
(28.006169 -0.013977013 0)
(29.432737 -0.0013638455 0)
(31.244204 0.0061432973 0)
(33.12577 0.010959377 0)
(34.624933 0.012191852 0)
(35.360036 0.011961206 0)
(34.868529 0.010401886 0)
(32.947244 0.0084597601 0)
(30.068399 0.0065554216 0)
(26.712826 0.0048636411 0)
(23.239589 0.0035034524 0)
(19.877977 0.002458196 0)
(16.759221 0.0016860102 0)
(13.949772 0.0011321687 0)
(11.470382 0.00074457119 0)
(9.3118878 0.0004786815 0)
(7.4502531 0.00029966745 0)
(5.8554683 0.00018145319 0)
(4.4962588 0.00010508216 0)
(3.3424767 5.7138053e-05 0)
(2.3662617 2.8116118e-05 0)
(1.5425295 1.153986e-05 0)
(0.84908196 3.3085148e-06 0)
(0.26650943 5.2170295e-08 0)
(26.039191 -0.00359593 0)
(26.216709 -0.011257154 0)
(26.439286 -0.01707299 0)
(26.589064 -0.02083013 0)
(26.783077 -0.022890877 0)
(27.16799 -0.022368067 0)
(27.995073 -0.014048993 0)
(29.418561 -0.0014128906 0)
(31.22774 0.0061206589 0)
(33.107708 0.01095234 0)
(34.605522 0.012189949 0)
(35.339312 0.01195871 0)
(34.846498 0.010398341 0)
(32.925135 0.0084540249 0)
(30.047374 0.0065504968 0)
(26.693603 0.0048593572 0)
(23.222558 0.003499977 0)
(19.863252 0.0024554173 0)
(16.746752 0.0016838256 0)
(13.939405 0.0011304774 0)
(11.461899 0.0007432534 0)
(9.3050514 0.00047765938 0)
(7.4448297 0.00029881775 0)
(5.8512432 0.00018072302 0)
(4.4930417 0.00010446214 0)
(3.3401028 5.6532653e-05 0)
(2.3645908 2.7659496e-05 0)
(1.5414443 1.1331949e-05 0)
(0.84848541 3.285104e-06 0)
(0.266322 6.9520264e-08 0)
(26.032416 -0.0036042371 0)
(26.209746 -0.011279595 0)
(26.432197 -0.017105466 0)
(26.581837 -0.020870469 0)
(26.775504 -0.022934735 0)
(27.15939 -0.022422227 0)
(27.983978 -0.014120736 0)
(29.404385 -0.0014612786 0)
(31.211271 0.0060981296 0)
(33.089642 0.010944612 0)
(34.586107 0.012187923 0)
(35.318579 0.011956233 0)
(34.824457 0.010395138 0)
(32.903019 0.008448999 0)
(30.026346 0.0065468225 0)
(26.674381 0.0048568266 0)
(23.205529 0.0034986719 0)
(19.848533 0.002455039 0)
(16.73429 0.0016840501 0)
(13.929046 0.0011310031 0)
(11.453425 0.00074394323 0)
(9.2982231 0.000478375 0)
(7.4394139 0.00029956766 0)
(5.8470249 0.00018145774 0)
(4.4898302 0.0001051324 0)
(3.3377331 5.7200519e-05 0)
(2.362923 2.8168534e-05 0)
(1.5403612 1.1574766e-05 0)
(0.84789005 3.3135789e-06 0)
(0.26613494 4.9458082e-08 0)
(26.025634 -0.0036123956 0)
(26.202777 -0.011301779 0)
(26.425102 -0.017137606 0)
(26.574605 -0.020910389 0)
(26.767925 -0.022977956 0)
(27.150788 -0.022476189 0)
(27.972884 -0.014193224 0)
(29.390209 -0.0015099566 0)
(31.194799 0.0060752835 0)
(33.071573 0.010935926 0)
(34.566686 0.01218494 0)
(35.297839 0.011952499 0)
(34.802406 0.010390104 0)
(32.880895 0.0084413569 0)
(30.005312 0.0065398352 0)
(26.655154 0.0048504185 0)
(23.188497 0.0034930894 0)
(19.833809 0.0024503291 0)
(16.721821 0.0016800679 0)
(13.918678 0.001127711 0)
(11.444942 0.00074113886 0)
(9.2913861 0.00047604077 0)
(7.4339901 0.00029755019 0)
(5.8427996 0.00017973705 0)
(4.486613 0.00010371732 0)
(3.3353591 5.5963519e-05 0)
(2.3612521 2.727362e-05 0)
(1.5392761 1.1139615e-05 0)
(0.8472936 3.2564684e-06 0)
(0.26594755 8.1225508e-08 0)
(26.018846 -0.0036204019 0)
(26.195802 -0.011323681 0)
(26.418 -0.017169414 0)
(26.567365 -0.02095007 0)
(26.76034 -0.023021636 0)
(27.142183 -0.022529658 0)
(27.961792 -0.014264254 0)
(29.376031 -0.0015589433 0)
(31.178324 0.0060528195 0)
(33.053499 0.010928808 0)
(34.54726 0.01218286 0)
(35.277089 0.011949956 0)
(34.780343 0.010386888 0)
(32.858763 0.0084360512 0)
(29.984275 0.0065358353 0)
(26.635929 0.0048475302 0)
(23.171469 0.0034914676 0)
(19.81909 0.0024497313 0)
(16.709359 0.00168024 0)
(13.908317 0.0011283312 0)
(11.436464 0.00074206179 0)
(9.284554 0.00047706752 0)
(7.4285699 0.0002986508 0)
(5.838577 0.00018083164 0)
(4.4833976 0.00010471381 0)
(3.3329863 5.6932274e-05 0)
(2.3595819 2.8010169e-05 0)
(1.5381913 1.1493288e-05 0)
(0.84669725 3.2977593e-06 0)
(0.26576017 5.1448575e-08 0)
(26.012051 -0.0036282182 0)
(26.18882 -0.011345247 0)
(26.410892 -0.017200837 0)
(26.56012 -0.020989262 0)
(26.75275 -0.023064352 0)
(27.133576 -0.022582804 0)
(27.950701 -0.014336156 0)
(29.361854 -0.0016076475 0)
(31.161846 0.0060301625 0)
(33.035422 0.010920011 0)
(34.52783 0.012179385 0)
(35.256333 0.011945948 0)
(34.758271 0.010382283 0)
(32.836625 0.0084291878 0)
(29.963236 0.0065300431 0)
(26.616704 0.0048425951 0)
(23.154442 0.0034875478 0)
(19.804372 0.0024466813 0)
(16.696897 0.0016779092 0)
(13.897956 0.0011265825 0)
(11.427986 0.00074073563 0)
(9.2777199 0.00047605413 0)
(7.4231478 0.00029780875 0)
(5.8343525 0.00018009862 0)
(4.4801806 0.00010408441 0)
(3.3306122 5.6298402e-05 0)
(2.3579108 2.7525666e-05 0)
(1.5371059 1.1275068e-05 0)
(0.84610062 3.2756679e-06 0)
(0.2655727 7.1368149e-08 0)
(26.00525 -0.0036358679 0)
(26.181833 -0.011366516 0)
(26.403778 -0.017231926 0)
(26.552869 -0.021028073 0)
(26.745155 -0.023107043 0)
(27.124966 -0.022635934 0)
(27.939612 -0.014407781 0)
(29.347676 -0.0016567232 0)
(31.145365 0.0060075872 0)
(33.017342 0.010912851 0)
(34.508396 0.012177794 0)
(35.235569 0.011943638 0)
(34.73619 0.010379367 0)
(32.814481 0.0084242424 0)
(29.942195 0.006526482 0)
(26.597481 0.0048402229 0)
(23.13742 0.003486443 0)
(19.789662 0.0024465336 0)
(16.684443 0.0016783843 0)
(13.887604 0.0011273614 0)
(11.419516 0.00074166585 0)