/*--------------------------------*- C++ -*----------------------------------*\
| =========                 |                                                 |
| \\      /  F ield         | OpenFOAM: The Open Source CFD Toolbox           |
|  \\    /   O peration     | Version:  v2012                                 |
|   \\  /    A nd           | Website:  www.openfoam.com                      |
|    \\/     M anipulation  |                                                 |
\*---------------------------------------------------------------------------*/
FoamFile
{
    version     2.0;
    format      ascii;
    class       volScalarField;
    location    "800";
    object      alphat;
}
// * * * * * * * * * * * * * * * * * * * * * * * * * * * * * * * * * * * * * //

dimensions      [1 -1 -1 0 0 0 0];


internalField   nonuniform List<scalar> 
24000
(
0.00051505805
0.00021255149
0.00017357093
0.00019097033
0.00017251168
0.00014370108
0.0001128622
8.7762893e-05
7.4093305e-05
4.6984369e-05
2.5564856e-05
1.6949144e-05
1.4203597e-05
1.0505384e-05
6.3080946e-06
3.8100829e-06
2.2349242e-06
1.1535497e-06
4.7135733e-07
1.6594475e-07
5.1980611e-08
1.4830471e-08
3.8767477e-09
9.1649645e-10
1.896485e-10
3.2428289e-11
4.2004365e-12
4.3382733e-13
1.4302851e-13
1.5348012e-13
0.00051619987
0.00021056589
0.00017297866
0.00019022705
0.00017214043
0.00014351727
0.00011276027
8.7678767e-05
7.3964215e-05
4.6899948e-05
2.551611e-05
1.6912257e-05
1.4167056e-05
1.0458693e-05
6.2799848e-06
3.7923787e-06
2.2234142e-06
1.1470208e-06
4.6837949e-07
1.6482141e-07
5.1614978e-08
1.472412e-08
3.8487154e-09
9.0985435e-10
1.8827475e-10
3.219336e-11
4.1694831e-12
4.2996433e-13
1.4116956e-13
1.5142115e-13
0.0005173775
0.00021260597
0.00017299412
0.00019007213
0.00017185443
0.00014318054
0.00011242538
8.731966e-05
7.3593921e-05
4.6802956e-05
2.5459573e-05
1.6871552e-05
1.4127556e-05
1.0416802e-05
6.2531179e-06
3.7753147e-06
2.2123355e-06
1.1393316e-06
4.6473147e-07
1.6341069e-07
5.1150832e-08
1.4588891e-08
3.8131364e-09
9.0144088e-10
1.865376e-10
3.1897846e-11
4.1322823e-12
4.2725217e-13
1.4125169e-13
1.5161499e-13
0.00051857592
0.00021354637
0.00017261972
0.00018974817
0.00017158002
0.00014292401
0.00011219552
8.7092089e-05
7.3338653e-05
4.6702676e-05
2.5401538e-05
1.6831022e-05
1.4088725e-05
1.0371776e-05
6.2258292e-06
3.7588554e-06
2.2021482e-06
1.1330099e-06
4.6189937e-07
1.6235951e-07
5.0813411e-08
1.4491865e-08
3.7877749e-09
8.9546348e-10
1.8530549e-10
3.1688155e-11
4.1055005e-12
4.2482969e-13
1.4074626e-13
1.5110448e-13
0.0005197889
0.0002144626
0.00017220371
0.00018941251
0.00017130618
0.00014267505
0.00011197445
8.6872231e-05
7.3087859e-05
4.6599939e-05
2.5341812e-05
1.6789884e-05
1.4049601e-05
1.0327935e-05
6.198986e-06
3.7424659e-06
2.1918502e-06
1.126413e-06
4.5889565e-07
1.6122957e-07
5.0447328e-08
1.4385997e-08
3.7600115e-09
8.8890782e-10
1.8395275e-10
3.1457845e-11
4.0761574e-12
4.2227315e-13
1.4031048e-13
1.5068114e-13
0.0005210145
0.00021524156
0.00017176515
0.00018906205
0.00017103415
0.00014243525
0.00011176356
8.6661552e-05
7.2848105e-05
4.6495828e-05
2.5281134e-05
1.6748449e-05
1.4010405e-05
1.0283987e-05
6.1720219e-06
3.7259706e-06
2.1814922e-06
1.1198076e-06
4.5589463e-07
1.6010264e-07
5.0082644e-08
1.4280594e-08
3.7323771e-09
8.8238318e-10
1.826064e-10
3.1228598e-11
4.0469249e-12
4.1969843e-13
1.398431e-13
1.5022115e-13
0.00052225143
0.00021596078
0.00017132638
0.00018870827
0.00017076422
0.0001422002
0.00011155716
8.6454647e-05
7.2612929e-05
4.6390918e-05
2.5219862e-05
1.6706819e-05
1.3971161e-05
1.0240098e-05
6.1450306e-06
3.7094246e-06
2.1710963e-06
1.1131743e-06
4.5288064e-07
1.5897078e-07
4.9716321e-08
1.4174704e-08
3.704611e-09
8.7582663e-10
1.8125332e-10
3.0998183e-11
4.0175372e-12
4.1710494e-13
1.3936726e-13
1.4975184e-13
0.00052349921
0.00021664853
0.00017089431
0.00018835399
0.00017049617
0.00014196832
0.00011135361
8.6250176e-05
7.2380932e-05
4.6285599e-05
2.5158253e-05
1.6665089e-05
1.3931914e-05
1.0196283e-05
6.1180399e-06
3.6928645e-06
2.1606913e-06
1.1065386e-06
4.4986731e-07
1.5783965e-07
4.9350299e-08
1.4068906e-08
3.676869e-09
8.6927544e-10
1.799013e-10
3.0767931e-11
3.9881649e-12
4.1450766e-13
1.3888552e-13
1.4927571e-13
0.00052475782
0.000217329
0.00017047285
0.00018800113
0.00017022991
0.00014173862
0.00011115196
8.6047421e-05
7.2151225e-05
4.6180133e-05
2.5096476e-05
1.662332e-05
1.3892695e-05
1.0152565e-05
6.0910919e-06
3.6763183e-06
2.1502971e-06
1.0999144e-06
4.4686169e-07
1.56712e-07
4.8985498e-08
1.3963471e-08
3.6492223e-09
8.6274668e-10
1.7855385e-10
3.0538453e-11
3.9588868e-12
4.119147e-13
1.3840056e-13
1.4879564e-13
0.00052602753
0.00021801706
0.00017006402
0.00018765035
0.00016996531
0.00014151072
0.0001109517
8.584598e-05
7.1923197e-05
4.6074691e-05
2.5034645e-05
1.6581555e-05
1.3853519e-05
1.0108974e-05
6.0642083e-06
3.6598e-06
2.1399239e-06
1.0933093e-06
4.4386695e-07
1.5558902e-07
4.8622332e-08
1.3858521e-08
3.6217034e-09
8.5624799e-10
1.772126e-10
3.0310023e-11
3.9297398e-12
4.0933037e-13
1.3791426e-13
1.4831369e-13
0.00052730876
0.00021872141
0.0001696691
0.00018730245
0.00016970242
0.00014128434
0.00011075263
8.5645627e-05
7.1696801e-05
4.5969391e-05
2.4972837e-05
1.6539818e-05
1.3814393e-05
1.0065518e-05
6.0373973e-06
3.6433239e-06
2.1295807e-06
1.0867305e-06
4.4088673e-07
1.5447224e-07
4.8261305e-08
1.3754207e-08
3.5943523e-09
8.4978897e-10
1.758795e-10
3.0082978e-11
3.9007667e-12
4.0675883e-13
1.3742776e-13
1.4783104e-13
0.0005286021
0.00021944753
0.00016928878
0.00018695769
0.00016944124
0.00014105944
0.00011055463
8.5446257e-05
7.1471879e-05
4.5864307e-05
2.4911102e-05
1.6498128e-05
1.3775324e-05
1.0022212e-05
6.0106721e-06
3.6268967e-06
2.1192715e-06
1.0801804e-06
4.3792229e-07
1.5336209e-07
4.7902537e-08
1.3650562e-08
3.5671782e-09
8.4337168e-10
1.7455497e-10
2.9857385e-11
3.8719767e-12
4.0420114e-13
1.3694149e-13
1.4734814e-13
0.00052990817
0.00022019999
0.00016892352
0.00018661607
0.00016918175
0.00014083592
0.00011035767
8.5247787e-05
7.1247531e-05
4.575949e-05
2.4849476e-05
1.6456496e-05
1.3736323e-05
9.9790599e-06
5.9840443e-06
3.6105224e-06
2.1090007e-06
1.073662e-06
4.3497528e-07
1.522592e-07
4.7546249e-08
1.3547651e-08
3.5401983e-09
8.3700031e-10
1.7323993e-10
2.9633398e-11
3.8433894e-12
4.0165963e-13
1.3645644e-13
1.468661e-13
0.00053122763
0.00022098205
0.00016857364
0.00018627756
0.00016892389
0.00014061372
0.00011016164
8.5050192e-05
7.1024449e-05
4.5654984e-05
2.4787982e-05
1.6414933e-05
1.3697388e-05
9.9360597e-06
5.957508e-06
3.5942037e-06
2.0987691e-06
1.0671763e-06
4.3204568e-07
1.5116356e-07
4.7192443e-08
1.3445473e-08
3.5134121e-09
8.3067475e-10
1.7193433e-10
2.9411019e-11
3.8150053e-12
3.9913454e-13
1.3597284e-13
1.4638521e-13
0.00053256117
0.00022179502
0.00016823941
0.00018594222
0.00016866763
0.00014039281
0.00010996648
8.4853419e-05
7.0802405e-05
4.5550817e-05
2.4726638e-05
1.6373442e-05
1.3658518e-05
9.8932249e-06
5.931068e-06
3.5779442e-06
2.0885782e-06
1.0607249e-06
4.2913446e-07
1.5007558e-07
4.6841266e-08
1.3344073e-08
3.4868312e-09
8.2439775e-10
1.7063875e-10
2.9190344e-11
3.7868373e-12
3.9662691e-13
1.3549089e-13
1.4590565e-13
0.00053390951
0.00022263925
0.00016792096
0.00018561036
0.00016841307
0.00014017321
0.00010977226
8.4657455e-05
7.058135e-05
4.5447009e-05
2.4665454e-05
1.6332028e-05
1.3619717e-05
9.8505444e-06
5.9047323e-06
3.5617422e-06
2.0784284e-06
1.054307e-06
4.262413e-07
1.4899511e-07
4.6492633e-08
1.3243427e-08
3.4604495e-09
8.1816787e-10
1.6935287e-10
2.897132e-11
3.7588784e-12
3.9413633e-13
1.3501064e-13
1.4542748e-13
0.00053527337
0.00022351561
0.00016761841
0.00018528175
0.00016816013
0.0001399549
0.00010957894
8.4462308e-05
7.0361235e-05
4.5343572e-05
2.4604441e-05
1.6290692e-05
1.3580988e-05
9.8080246e-06
5.8784938e-06
3.5456001e-06
2.0683213e-06
1.0479242e-06
4.2336704e-07
1.4792244e-07
4.6146654e-08
1.3143566e-08
3.4342759e-09
8.1198716e-10
1.6807712e-10
2.8754016e-11
3.7311378e-12
3.9166387e-13
1.345326e-13
1.4495126e-13
0.00053665347
0.0002244257
0.0001673319
0.00018495635
0.00016790883
0.00013973792
0.00010938655
8.4267967e-05
7.0142114e-05
4.5240517e-05
2.4543604e-05
1.624944e-05
1.3542329e-05
9.7656643e-06
5.852352e-06
3.5295181e-06
2.0582553e-06
1.0415757e-06
4.2051086e-07
1.4685725e-07
4.5803224e-08
1.3044457e-08
3.4083005e-09
8.0585331e-10
1.6681104e-10
2.853835e-11
3.7036048e-12
3.8920861e-13
1.3405657e-13
1.4447679e-13
0.00053805055
0.00022537011
0.00016706159
0.00018463408
0.00016765911
0.00013952217
0.00010919503
8.4074467e-05
6.9924084e-05
4.513785e-05
2.4482947e-05
1.6208272e-05
1.3503737e-05
9.7234637e-06
5.826316e-06
3.5134959e-06
2.0482312e-06
1.0352618e-06
4.1767314e-07
1.4579973e-07
4.5462417e-08
1.2946122e-08
3.38253e-09
7.9976796e-10
1.6555496e-10
2.8324389e-11
3.6762874e-12
3.8677122e-13
1.3358261e-13
1.4400413e-13
0.00053946535
0.00022634833
0.00016680754
0.00018431528
0.00016741103
0.00013930772
0.00010900439
8.3881777e-05
6.9707056e-05
4.5035576e-05
2.4422474e-05
1.6167189e-05
1.3465217e-05
9.6814224e-06
5.8003769e-06
3.4975317e-06
2.0382487e-06
1.0289817e-06
4.1485351e-07
1.4474967e-07
4.512414e-08
1.2848536e-08
3.3569569e-09
7.9372925e-10
1.6430852e-10
2.8112065e-11
3.6491781e-12
3.8435108e-13
1.3311073e-13
1.4353333e-13
0.0005408986
0.00022736049
0.00016656976
0.00018399991
0.00016716466
0.00013909456
0.0001088147
8.3689915e-05
6.9490957e-05
4.4933699e-05
2.4362187e-05
1.6126192e-05
1.3426772e-05
9.6395345e-06
5.7745343e-06
3.481629e-06
2.028309e-06
1.022737e-06
4.1205275e-07
1.4370737e-07
4.4788492e-08
1.2751728e-08
3.3315896e-09
7.8773923e-10
1.6307209e-10
2.7901447e-11
3.6222853e-12
3.8194916e-13
1.3264133e-13
1.4306481e-13
0.00054235104
0.00022840809
0.00016634833
0.00018368769
0.00016691987
0.00013888272
0.00010862592
8.3498904e-05
6.9275814e-05
4.483222e-05
2.4302089e-05
1.6085283e-05
1.3388397e-05
9.5978092e-06
5.7487943e-06
3.4657851e-06
2.0184093e-06
1.0165258e-06
4.0926959e-07
1.4267234e-07
4.4455308e-08
1.2655645e-08
3.306414e-09
7.8179448e-10
1.6184498e-10
2.7692411e-11
3.5955935e-12
3.79564e-13
1.3217403e-13
1.4259816e-13
0.00054382341
0.00022949202
0.00016614337
0.00018337861
0.00016667671
0.00013867214
0.00010843805
8.3308739e-05
6.9061663e-05
4.4731143e-05
2.4242182e-05
1.6044465e-05
1.335009e-05
9.5562401e-06
5.7231535e-06
3.449999e-06
2.0085514e-06
1.0103484e-06
4.065044e-07
1.4164473e-07
4.4124665e-08
1.2560313e-08
3.2814367e-09
7.7589667e-10
1.6062758e-10
2.7485021e-11
3.5691105e-12
3.7719637e-13
1.3170904e-13
1.4213359e-13
0.00054531644
0.00023061143
0.00016595495
0.00018307284
0.00016643511
0.00013846283
0.00010825108
8.3119453e-05
6.8848563e-05
4.463047e-05
2.4182467e-05
1.6003737e-05
1.331186e-05
9.5148244e-06
5.697606e-06
3.4342715e-06
1.9987343e-06
1.0042045e-06
4.0375701e-07
1.4062443e-07
4.3796498e-08
1.246571e-08
3.2566515e-09
7.7004421e-10
1.5941951e-10
2.7279218e-11
3.5428284e-12
3.7484552e-13
1.3124615e-13
1.4167091e-13
0.00054683085
0.0002317654
0.0001657831
0.00018277059
0.00016619523
0.00013825483
0.00010806504
8.2931072e-05
6.86365e-05
4.4530205e-05
2.4122946e-05
1.5963101e-05
1.3273705e-05
9.4735659e-06
5.672158e-06
3.4186041e-06
1.9889582e-06
9.9809484e-07
4.0102785e-07
1.3961161e-07
4.3470855e-08
1.2371854e-08
3.2320634e-09
7.6423836e-10
1.5822107e-10
2.7075053e-11
3.516754e-12
3.7251219e-13
1.3078567e-13
1.4121045e-13
0.00054836737
0.00023295438
0.00016562783
0.0001824716
0.00016595698
0.00013804812
0.00010787998
8.2743591e-05
6.8425447e-05
4.4430348e-05
2.4063617e-05
1.5922558e-05
1.3235622e-05
9.4324651e-06
5.6468108e-06
3.4029924e-06
1.9792214e-06
9.9201747e-07
3.9831553e-07
1.3860573e-07
4.3147556e-08
1.2278688e-08
3.2076579e-09
7.5847567e-10
1.570315e-10
2.6872399e-11
3.4908718e-12
3.7019498e-13
1.3032733e-13
1.4075194e-13
0.0005499267
0.0002341796
0.00016548919
0.0001821757
0.00016572031
0.00013784271
0.0001076958
8.2557013e-05
6.8215457e-05
4.4330899e-05
2.4004483e-05
1.588211e-05
1.3197612e-05
9.3915212e-06
5.6215563e-06
3.3874384e-06
1.9695252e-06
9.8597299e-07
3.9562067e-07
1.3760703e-07
4.2826709e-08
1.2186246e-08
3.1834435e-09
7.5275814e-10
1.5585123e-10
2.6671326e-11
3.4651906e-12
3.6789471e-13
1.2987134e-13
1.4029561e-13
0.00055150955
0.00023544125
0.0001653672
0.00018188306
0.00016548526
0.00013763854
0.00010751256
8.2371341e-05
6.8006569e-05
4.423186e-05
2.3945544e-05
1.5841759e-05
1.3159681e-05
9.3507267e-06
5.5963958e-06
3.3719424e-06
1.9598686e-06
9.7996109e-07
3.92943e-07
1.3661535e-07
4.2508236e-08
1.20945e-08
3.1594122e-09
7.4708382e-10
1.5467988e-10
2.6471759e-11
3.4397002e-12
3.6561039e-13
1.2941739e-13
1.3984109e-13
0.00055311661
0.00023673849
0.00016526175
0.00018159388
0.00016525184
0.00013743569
0.00010733025
8.2186598e-05
6.7798797e-05
4.4133231e-05
2.3886803e-05
1.5801504e-05
1.3121829e-05
9.3100915e-06
5.5713391e-06
3.3565041e-06
1.9502518e-06
9.739824e-07
3.9028283e-07
1.3563082e-07
4.2192176e-08
1.2003466e-08
3.135569e-09
7.4145391e-10
1.5351767e-10
2.6273748e-11
3.4144069e-12
3.6334272e-13
1.2896574e-13
1.3938869e-13
0.00055474857
0.00023807127
0.00016517261
0.00018130818
0.00016502017
0.00013723412
0.00010714891
8.2002771e-05
6.7592089e-05
4.4035013e-05
2.3828259e-05
1.5761348e-05
1.3084052e-05
9.2696144e-06
5.5463744e-06
3.3411206e-06
1.9406738e-06
9.6803498e-07
3.8763895e-07
1.3465298e-07
4.1878362e-08
1.1913095e-08
3.1119e-09
7.3586516e-10
1.5236395e-10
2.607718e-11
3.3892964e-12
3.6109048e-13
1.2851617e-13
1.3893821e-13
0.00055640608
0.00023944103
0.0001650992
0.00018102558
0.00016479007
0.00013703382
0.00010696847
8.1819894e-05
6.7386497e-05
4.3937205e-05
2.3769913e-05
1.5721292e-05
1.3046353e-05
9.2292891e-06
5.5215026e-06
3.3257954e-06
1.9311358e-06
9.621199e-07
3.8501212e-07
1.3368212e-07
4.1566918e-08
1.182342e-08
3.088415e-09
7.3031986e-10
1.5121916e-10
2.5882132e-11
3.364379e-12
3.5885449e-13
1.2806889e-13
1.3848987e-13
0.00055808982
0.00024084874
0.00016503842
0.00018074602
0.0001645616
0.00013683475
0.00010678892
8.1637954e-05
6.7182075e-05
4.3839808e-05
2.3711764e-05
1.5681339e-05
1.3008739e-05
9.1891185e-06
5.4967314e-06
3.3105269e-06
1.9216359e-06
9.562364e-07
3.8240183e-07
1.3271798e-07
4.1257744e-08
1.1734411e-08
3.0651054e-09
7.2481586e-10
1.5008286e-10
2.5688525e-11
3.3396444e-12
3.5663383e-13
1.2762363e-13
1.3804334e-13
0.00055980042
0.00024229333
0.00016499969
0.0001804698
0.00016433474
0.00013663694
0.00010661031
8.1456956e-05
6.69788e-05
4.3742824e-05
2.3653815e-05
1.5641488e-05
1.2971207e-05
9.1491079e-06
5.4720562e-06
3.2953143e-06
1.9121755e-06
9.5038531e-07
3.7980848e-07
1.3176072e-07
4.0950897e-08
1.1646086e-08
3.0419761e-09
7.1935451e-10
1.4895536e-10
2.5496408e-11
3.3150993e-12
3.5442926e-13
1.271807e-13
1.3759899e-13
0.00056153851
0.00024377354
0.00016497851
0.00018019703
0.00016410958
0.00013644043
0.00010643261
8.1276914e-05
6.6776653e-05
4.3646253e-05
2.3596066e-05
1.5601742e-05
1.2933755e-05
9.1092546e-06
5.4474722e-06
3.2801575e-06
1.9027534e-06
9.4456475e-07
3.7723097e-07
1.3080993e-07
4.0646207e-08
1.1558396e-08
3.0190133e-09
7.1393238e-10
1.4783592e-10
2.5305658e-11
3.2907271e-12
3.5223927e-13
1.2673979e-13
1.3715649e-13
0.00056330471
0.00024528994
0.00016497963
0.00017992753
0.00016388613
0.00013624516
0.00010625583
8.109784e-05
6.6575677e-05
4.3550096e-05
2.3538517e-05
1.5562102e-05
1.2896387e-05
9.0695528e-06
5.4229864e-06
3.2650586e-06
1.8933703e-06
9.3877569e-07
3.7466996e-07
1.2986587e-07
4.0343789e-08
1.1471374e-08
2.9962265e-09
7.0855176e-10
1.4672505e-10
2.5116362e-11
3.2665388e-12
3.5006481e-13
1.2630102e-13
1.3671598e-13
0.00056509961
0.00024684415
0.00016499395
0.00017966095
0.00016366423
0.00013605112
0.0001060799
8.0919738e-05
6.6375921e-05
4.3454356e-05
2.348117e-05
1.552257e-05
1.2859109e-05
9.0300104e-06
5.3985994e-06
3.2500147e-06
1.8840248e-06
9.3301743e-07
3.7212491e-07
1.2892827e-07
4.0043548e-08
1.1384988e-08
2.9736073e-09
7.0321062e-10
1.4562227e-10
2.4928444e-11
3.2425251e-12
3.4790495e-13
1.2586414e-13
1.3627717e-13
0.00056692379
0.00024843619
0.00016502419
0.00017939738
0.000163444
0.00013585828
0.00010590485
8.0742586e-05
6.6177356e-05
4.3359034e-05
2.3424025e-05
1.5483147e-05
1.2821918e-05
8.9906306e-06
5.3743054e-06
3.2350278e-06
1.8747191e-06
9.2729116e-07
3.6959645e-07
1.2799737e-07
3.9745566e-08
1.1299267e-08
2.9511633e-09
6.9791085e-10
1.44528e-10
2.474197e-11
3.218695e-12
3.4576062e-13
1.2542949e-13
1.3584045e-13
0.0005687778
0.00025006416
0.00016507084
0.00017913706
0.00016322541
0.0001356667
0.00010573071
8.0566412e-05
6.5979963e-05
4.3264132e-05
2.3367081e-05
1.5443834e-05
1.2784813e-05
8.9514049e-06
5.350105e-06
3.2200973e-06
1.8654512e-06
9.2159487e-07
3.6708344e-07
1.2707271e-07
3.9449666e-08
1.1214152e-08
2.9288783e-09
6.9264848e-10
1.4344142e-10
2.4556797e-11
3.1950298e-12
3.4363018e-13
1.2499679e-13
1.3540553e-13
0.00057066219
0.00025172697
0.00016513397
0.00017888005
0.0001630086
0.00013547634
0.00010555741
8.0391226e-05
6.5783788e-05
4.3169651e-05
2.331034e-05
1.5404632e-05
1.2747798e-05
8.9123372e-06
5.3260089e-06
3.2052247e-06
1.856222e-06
9.1592961e-07
3.6458653e-07
1.2615462e-07
3.9155964e-08
1.1129685e-08
2.9067636e-09
6.8742627e-10
1.423631e-10
2.4373022e-11
3.171542e-12
3.4151484e-13
1.2456632e-13
1.3497268e-13
0.00057257746
0.00025342622
0.00016521368
0.00017862596
0.00016279349
0.00013528717
0.00010538493
8.0217008e-05
6.5588846e-05
4.3075594e-05
2.3253803e-05
1.5365543e-05
1.2710877e-05
8.8734319e-06
5.3020059e-06
3.1904069e-06
1.8470308e-06
9.1029492e-07
3.6210533e-07
1.2524285e-07
3.8864381e-08
1.1045839e-08
2.8848114e-09
6.822423e-10
1.4129266e-10
2.4190582e-11
3.1482227e-12
3.3941359e-13
1.2413766e-13
1.3454147e-13
0.00057452409
0.00025516344
0.00016531009
0.00017837445
0.00016258001
0.0001350992
0.00010521326
8.0043748e-05
6.5395116e-05
4.2981963e-05
2.3197471e-05
1.5326567e-05
1.2674048e-05
8.8346898e-06
5.2780974e-06
3.175648e-06
1.8378797e-06
9.0469203e-07
3.5964043e-07
1.2433761e-07
3.8575003e-08
1.0962637e-08
2.8630293e-09
6.7709846e-10
1.4023046e-10
2.4009544e-11
3.1250806e-12
3.373273e-13
1.2371107e-13
1.3411217e-13
0.00057650255
0.00025693754
0.00016542335
0.00017812585
0.00016236825
0.00013491241
0.00010504243
7.987145e-05
6.5202574e-05
4.2888761e-05
2.3141343e-05
1.5287706e-05
1.2637311e-05
8.7961029e-06
5.2542909e-06
3.160946e-06
1.828766e-06
8.9911846e-07
3.5719057e-07
1.2343839e-07
3.8287625e-08
1.0880017e-08
2.8413998e-09
6.7199042e-10
1.3917558e-10
2.3829748e-11
3.1020959e-12
3.3525421e-13
1.2328628e-13
1.3368454e-13
0.0005785133
0.00025874616
0.00016555341
0.00017788036
0.0001621582
0.00013472681
0.00010487235
7.9700137e-05
6.5011253e-05
4.279599e-05
2.308542e-05
1.5248958e-05
1.2600668e-05
8.7576817e-06
5.2305837e-06
3.1463012e-06
1.8196912e-06
8.9357565e-07
3.5475654e-07
1.2254561e-07
3.8002395e-08
1.0798028e-08
2.8199359e-09
6.6692147e-10
1.3812875e-10
2.3651316e-11
3.0792847e-12
3.3319592e-13
1.2286376e-13
1.3325906e-13
0.00058055674
0.00026058836
0.00016570018
0.00017763792
0.00016195003
0.00013454236
0.00010470303
7.9529784e-05
6.4821162e-05
4.2703654e-05
2.3029701e-05
1.5210326e-05
1.2564123e-05
8.7194256e-06
5.2069704e-06
3.1317137e-06
1.8106552e-06
8.8806348e-07
3.5233803e-07
1.2165905e-07
3.7719235e-08
1.0716644e-08
2.7986305e-09
6.6188974e-10
1.3708957e-10
2.3474174e-11
3.0566367e-12
3.3115123e-13
1.2244298e-13
1.3283512e-13
0.00058263327
0.00026246569
0.00016586362
0.00017739805
0.00016174363
0.00013435908
0.00010453446
7.9360387e-05
6.4632273e-05
4.2611757e-05
2.2974187e-05
1.517181e-05
1.2527674e-05
8.6813312e-06
5.1834571e-06
3.1171859e-06
1.8016594e-06
8.8258283e-07
3.4993551e-07
1.2077885e-07
3.7438214e-08
1.0635885e-08
2.7774892e-09
6.5689668e-10
1.3605834e-10
2.3298379e-11
3.034159e-12
3.2912089e-13
1.2202417e-13
1.3241299e-13
0.00058474325
0.00026437959
0.00016604378
0.00017716044
0.00016153902
0.00013417696
0.00010436661
7.9191943e-05
6.4444565e-05
4.2520302e-05
2.2918878e-05
1.5133409e-05
1.2491321e-05
8.6433991e-06
5.1600484e-06
3.1027158e-06
1.7927014e-06
8.7713134e-07
3.4754785e-07
1.1990453e-07
3.7159144e-08
1.0555693e-08
2.7564962e-09
6.5193841e-10
1.3503424e-10
2.3123793e-11
3.0118336e-12
3.2710342e-13
1.2160717e-13
1.3199255e-13
0.00058688705
0.0002663288
0.00016624073
0.00017692534
0.00016133625
0.00013399595
0.00010419943
7.9024462e-05
6.4258061e-05
4.2429294e-05
2.2863774e-05
1.5095122e-05
1.2455064e-05
8.6056366e-06
5.1367369e-06
3.0883043e-06
1.7837832e-06
8.7171084e-07
3.4517599e-07
1.190366e-07
3.6882203e-08
1.0476123e-08
2.7356669e-09
6.4701868e-10
1.3401805e-10
2.2950551e-11
2.9896786e-12
3.2510046e-13
1.2119235e-13
1.3157416e-13
0.00058906497
0.00026831071
0.00016645436
0.0001766929
0.00016113542
0.00013381609
0.0001040329
7.8857935e-05
6.407277e-05
4.2338739e-05
2.2808874e-05
1.505695e-05
1.2418908e-05
8.5680415e-06
5.1135215e-06
3.073952e-06
1.7749045e-06
8.6632104e-07
3.4281949e-07
1.1817481e-07
3.6607288e-08
1.0397143e-08
2.714992e-09
6.4213523e-10
1.3300929e-10
2.2778567e-11
2.9676828e-12
3.2311061e-13
1.2077907e-13
1.3115712e-13
0.00059127732
0.00027032432
0.00016668461
0.00017646295
0.00016093669
0.00013363737
0.00010386705
7.8692352e-05
6.3888657e-05
4.2248645e-05
2.2754179e-05
1.501889e-05
1.2382852e-05
8.5306095e-06
5.0904147e-06
3.0596607e-06
1.7660663e-06
8.6096246e-07
3.4047864e-07
1.1731922e-07
3.6334449e-08
1.0318771e-08
2.6944765e-09
6.3728932e-10
1.3200825e-10
2.2607887e-11
2.9458526e-12
3.2113472e-13
1.2036777e-13
1.307419e-13
0.00059352434
0.00027237116
0.00016693149
0.00017623489
0.00016073993
0.00013345978
0.0001037018
7.8527708e-05
6.3705697e-05
4.2159016e-05
2.2699684e-05
1.4980942e-05
1.2346894e-05
8.493347e-06
5.0674077e-06
3.0454273e-06
1.7572664e-06
8.5563297e-07
3.3815253e-07
1.1646939e-07
3.6063521e-08
1.0240953e-08
2.6741056e-09
6.3247735e-10
1.3101418e-10
2.2438383e-11
2.9241712e-12
3.1917153e-13
1.1995837e-13
1.3032847e-13
0.00059580629
0.00027445263
0.00016719502
0.00017600837
0.00016054524
0.00013328328
0.00010353712
7.8363999e-05
6.352391e-05
4.2069859e-05
2.264539e-05
1.4943103e-05
1.2311035e-05
8.4562538e-06
5.0444991e-06
3.0312548e-06
1.7485072e-06
8.5033464e-07
3.3584214e-07
1.1562588e-07
3.5794687e-08
1.0163746e-08
2.653895e-09
6.277031e-10
1.3002787e-10
2.2270195e-11
2.902656e-12
3.1722244e-13
1.1955104e-13
1.2991694e-13
0.00059812338
0.00027656725
0.00016747518
0.00017578351
0.0001603527
0.0001331079
0.00010337298
7.8201216e-05
6.3343294e-05
4.1981182e-05
2.2591297e-05
1.490537e-05
1.2275278e-05
8.4193248e-06
5.0216931e-06
3.0171425e-06
1.739788e-06
8.4506684e-07
3.3354686e-07
1.1478837e-07
3.5527836e-08
1.0087113e-08
2.6338348e-09
6.2296406e-10
1.2904876e-10
2.2103228e-11
2.8812945e-12
3.1528598e-13
1.1914509e-13
1.2950656e-13
0.00060047581
0.00027871227
0.00016777172
0.00017556037
0.00016016257
0.00013293371
0.00010320945
7.8039344e-05
6.3163812e-05
4.1892995e-05
2.2537403e-05
1.4867738e-05
1.2239621e-05
8.3825605e-06
4.9989949e-06
3.0030922e-06
1.7311098e-06
8.3983019e-07
3.3126703e-07
1.1395698e-07
3.5263015e-08
1.0011074e-08
2.6139306e-09
6.1826186e-10
1.280772e-10
2.1937544e-11
2.8600958e-12
3.1336327e-13
1.1874109e-13
1.2909798e-13
0.00060286372
0.00028088688
0.00016808452
0.00017533879
0.00015997492
0.00013276059
0.00010304647
7.7878363e-05
6.2985441e-05
4.1805306e-05
2.2483707e-05
1.4830205e-05
1.220406e-05
8.3459683e-06
4.976396e-06
2.9891013e-06
1.7224709e-06
8.3462307e-07
3.2900205e-07
1.1313135e-07
3.5000101e-08
9.93559e-09
2.5941709e-09
6.1359353e-10
1.2711259e-10
2.1773036e-11
2.8390463e-12
3.1145324e-13
1.1833899e-13
1.2869114e-13
0.00060528724
0.00028309303
0.00016841354
0.00017511843
0.00015978955
0.00013258831
0.00010288408
7.7718269e-05
6.2808195e-05
4.1718128e-05
2.2430206e-05
1.4792765e-05
1.2168595e-05
8.3095462e-06
4.9538974e-06
2.9751731e-06
1.7138736e-06
8.2944721e-07
3.2675272e-07
1.1231194e-07
3.4739251e-08
9.860706e-09
2.5745686e-09
6.0896229e-10
1.2615562e-10
2.1609817e-11
2.8181606e-12
3.0955708e-13
1.1793887e-13
1.2828611e-13
0.0006077465
0.00028533263
0.00016875899
0.00017489955
0.00015960644
0.0001324166
0.0001027223
7.7559074e-05
6.2632051e-05
4.1631474e-05
2.2376902e-05
1.4755412e-05
1.2133229e-05
8.2732872e-06
4.9315086e-06
2.9613063e-06
1.7053167e-06
8.2430166e-07
3.2451825e-07
1.114984e-07
3.4480331e-08
9.786381e-09
2.5551124e-09
6.0436532e-10
1.2520569e-10
2.1447789e-11
2.7974253e-12
3.0767333e-13
1.1754015e-13
1.278822e-13
0.00061024159
0.00028760466
0.00016912099
0.00017468254
0.00015942461
0.00013224561
0.00010256138
7.7400767e-05
6.2456957e-05
4.1545356e-05
2.232379e-05
1.4718139e-05
1.2097958e-05
8.2371988e-06
4.9092235e-06
2.9475019e-06
1.6968015e-06
8.191874e-07
3.2229913e-07
1.1069095e-07
3.4223423e-08
9.7126417e-09
2.5358102e-09
5.9980452e-10
1.2426319e-10
2.1287024e-11
2.7768497e-12
3.0580321e-13
1.1714347e-13
1.2748012e-13
0.00061277256
0.00028990622
0.00016949942
0.00017446717
0.00015924424
0.00013207549
0.00010240129
7.7243343e-05
6.2282907e-05
4.1459789e-05
2.2270872e-05
1.4680935e-05
1.2062779e-05
8.201283e-06
4.8870386e-06
2.933759e-06
1.6883264e-06
8.1410303e-07
3.2009489e-07
1.0988925e-07
3.3968411e-08
9.639453e-09
2.5166518e-09
5.9527756e-10
1.233276e-10
2.1127433e-11
2.7564226e-12
3.0394573e-13
1.1674861e-13
1.2707966e-13
0.00061533945
0.00029223549
0.00016989428
0.00017425316
0.00015906532
0.0001319063
0.00010224201
7.7086779e-05
6.2109906e-05
4.1374792e-05
2.2218148e-05
1.4643794e-05
1.2027691e-05
8.1655367e-06
4.8649598e-06
2.9200792e-06
1.6798932e-06
8.0904972e-07
3.1790615e-07
1.0909363e-07
3.3715411e-08
9.5668511e-09
2.497647e-09
5.9078677e-10
1.2239945e-10
2.0969106e-11
2.7361563e-12
3.0210176e-13
1.1635555e-13
1.2668073e-13
0.00061794225
0.00029459307
0.00017030555
0.0001740399
0.00015888787
0.00013173809
0.0001020836
7.6931073e-05
6.193792e-05
4.1290381e-05
2.2165618e-05
1.4606701e-05
1.1992697e-05
8.1299551e-06
4.842989e-06
2.9064618e-06
1.671501e-06
8.0402657e-07
3.1573207e-07
1.0830377e-07
3.3464308e-08
9.4947989e-09
2.4787858e-09
5.8632975e-10
1.2147824e-10
2.0811953e-11
2.7160393e-12
3.0027022e-13
1.1596399e-13
1.2628298e-13
0.00062058095
0.00029698095
0.00017073344
0.00017382701
0.0001587118
0.00013157082
0.00010192599
7.6776212e-05
6.176692e-05
4.1206578e-05
2.2113285e-05
1.4569644e-05
1.1957795e-05
8.0945483e-06
4.821121e-06
2.8929074e-06
1.6631511e-06
7.9903493e-07
3.1357328e-07
1.0751996e-07
3.3215198e-08
9.4233257e-09
2.4600768e-09
5.8190861e-10
1.2056445e-10
2.0656056e-11
2.6960825e-12
2.984525e-13
1.155746e-13
1.2588713e-13
0.00062325551
0.00029939911
0.00017117809
0.00017361465
0.00015853705
0.00013140454
0.0001017692
7.6622192e-05
6.1596905e-05
4.1123406e-05
2.2061152e-05
1.4532603e-05
1.1922984e-05
8.0593135e-06
4.7993536e-06
2.8794157e-06
1.6548417e-06
7.940733e-07
3.1142932e-07
1.0674191e-07
3.2967976e-08
9.3523992e-09
2.4415107e-09
5.7752096e-10
1.1965754e-10
2.0501328e-11
2.6762739e-12
2.9664743e-13
1.1518702e-13
1.2549276e-13
0.00062596588
0.00030184522
0.00017163959
0.0001734031
0.00015836377
0.00013123926
0.00010161324
7.6469005e-05
6.1427865e-05
4.1040889e-05
2.2009225e-05
1.449556e-05
1.1888265e-05
8.024246e-06
4.7776976e-06
2.8659872e-06
1.6465743e-06
7.8914233e-07
3.0930061e-07
1.0596977e-07
3.2722713e-08
9.2820439e-09
2.4230947e-09
5.7316872e-10
1.1875791e-10
2.0347841e-11
2.6566226e-12
2.9485569e-13
1.1480124e-13
1.2509979e-13
0.00062871194
0.00030431747
0.00017211808
0.00017319246
0.0001581919
0.00013107505
0.00010145816
7.6316655e-05
6.1259764e-05
4.0959054e-05
2.1957513e-05
1.4458491e-05
1.1853644e-05
7.9893443e-06
4.7561439e-06
2.8526207e-06
1.638348e-06
7.8424133e-07
3.0718643e-07
1.0520332e-07
3.2479319e-08
9.2122317e-09
2.4048208e-09
5.6884999e-10
1.1786514e-10
2.0195527e-11
2.6371206e-12
2.9307659e-13
1.1441709e-13
1.2470802e-13
0.00063149358
0.00030681647
0.00017261361
0.00017298237
0.00015802148
0.00013091187
0.00010130389
7.6165143e-05
6.1092595e-05
4.0877725e-05
2.1906009e-05
1.4421467e-05
1.1819127e-05
7.9546139e-06
4.7346916e-06
2.8393179e-06
1.6301643e-06
7.7937191e-07
3.0508745e-07
1.0444286e-07
3.2237901e-08
9.1429953e-09
2.3866979e-09
5.6456693e-10
1.1697975e-10
2.0044468e-11
2.6177796e-12
2.9131142e-13
1.1403512e-13
1.2431805e-13
0.00063431066
0.00030934508
0.00017312662
0.00017277255
0.00015785225
0.00013074972
0.00010115044
7.6014435e-05
6.0926348e-05
4.0796727e-05
2.1854694e-05
1.4384566e-05
1.1784717e-05
7.920049e-06
4.7133419e-06
2.826077e-06
1.6220207e-06
7.7453207e-07
3.0300295e-07
1.0368804e-07
3.1998325e-08
9.0742911e-09
2.3687144e-09
5.6031672e-10
1.1610114e-10
1.9894557e-11
2.5985856e-12
2.8955884e-13
1.1365494e-13
1.2392941e-13
0.00063716306
0.00031190436
0.00017365737
0.00017256316
0.00015768419
0.00013058864
0.00010099782
7.5864532e-05
6.0761e-05
4.0716051e-05
2.1803568e-05
1.434779e-05
1.175041e-05
7.8856435e-06
4.6920996e-06
2.8128989e-06
1.6139188e-06
7.6972236e-07
3.0093342e-07
1.02939e-07
3.1760665e-08
9.0061448e-09
2.3508776e-09
5.561011e-10
1.1522969e-10
1.9745869e-11
2.5795481e-12
2.8781983e-13
1.1327681e-13
1.2354229e-13
0.00064005061
0.00031449164
0.00017420617
0.00017235475
0.00015751728
0.00013042859
0.00010084606
7.5715441e-05
6.0596534e-05
4.0635691e-05
2.1752625e-05
1.4311137e-05
1.1716208e-05
7.8513992e-06
4.6709554e-06
2.7997818e-06
1.6058581e-06
7.649424e-07
2.9887831e-07
1.0219557e-07
3.1524846e-08
8.9385342e-09
2.3331817e-09
5.5191865e-10
1.1436509e-10
1.9598349e-11
2.56066e-12
2.8609374e-13
1.1290056e-13
1.2315649e-13
0.00064297313
0.00031710368
0.00017477318
0.00017214776
0.00015735151
0.00013026961
0.0001006951
7.5567155e-05
6.0432956e-05
4.0555646e-05
2.1701863e-05
1.4274605e-05
1.1682112e-05
7.817319e-06
4.6499099e-06
2.7867283e-06
1.5978395e-06
7.6019379e-07
2.9683824e-07
1.0145804e-07
3.1290976e-08
8.8714921e-09
2.3156352e-09
5.4777166e-10
1.1350779e-10
1.9452083e-11
2.541932e-12
2.8438168e-13
1.1252655e-13
1.2277235e-13
0.00064593041
0.00031973982
0.0001753585
0.0001719421
0.0001571869
0.00013011167
0.00010054497
7.5419655e-05
6.0270244e-05
4.0475912e-05
2.1651277e-05
1.4238191e-05
1.1648115e-05
7.7833973e-06
4.6289695e-06
2.7737348e-06
1.58986e-06
7.5547408e-07
2.9481219e-07
1.0072598e-07
3.1058893e-08
8.804969e-09
2.2982245e-09
5.436567e-10
1.126571e-10
1.9306949e-11
2.5233496e-12