/*--------------------------------*- C++ -*----------------------------------*\
| =========                 |                                                 |
| \\      /  F ield         | OpenFOAM: The Open Source CFD Toolbox           |
|  \\    /   O peration     | Version:  v2012                                 |
|   \\  /    A nd           | Website:  www.openfoam.com                      |
|    \\/     M anipulation  |                                                 |
\*---------------------------------------------------------------------------*/
FoamFile
{
    version     2.0;
    format      ascii;
    class       volScalarField;
    location    "800";
    object      k;
}
// * * * * * * * * * * * * * * * * * * * * * * * * * * * * * * * * * * * * * //

dimensions      [0 2 -2 0 0 0 0];


internalField   nonuniform List<scalar> 
24000
(
0.10733599
0.14534025
0.30545919
0.75828358
1.5009661
2.3107325
2.8353577
2.8554684
2.4754207
1.9636682
1.9111017
2.7653896
4.1388652
5.2106206
5.3830232
4.7580897
3.6277086
2.3788097
1.3524325
0.69670184
0.33649909
0.15474421
0.067739952
0.027899881
0.010569544
0.0035490738
0.0010044933
0.00026990108
0.00031581706
0.0022152513
0.10735205
0.14504818
0.30347656
0.75284421
1.4922613
2.3004107
2.8259063
2.8484841
2.4704551
1.9595215
1.906484
2.7583469
4.1286642
5.1964517
5.3665672
4.7410662
3.6124406
2.3672125
1.3450932
0.69266687
0.33447912
0.15379808
0.067322276
0.027727316
0.010504119
0.003527065
0.00099812879
0.00026777384
0.00031203185
0.0021877617
0.10738282
0.14477567
0.30157352
0.74775605
1.4843521
2.2914398
2.8179871
2.8426262
2.4658087
1.955336
1.9018916
2.7517821
4.1188967
5.1820959
5.3487288
4.7217199
3.594381
2.352712
1.3356692
0.68743364
0.33185378
0.15256843
0.066779316
0.027502848
0.010419008
0.0034985786
0.00099030929
0.00026637397
0.00031255035
0.0021929141
0.10742044
0.14451382
0.29970251
0.74272818
1.4765006
2.2825082
2.810008
2.8365743
2.4609692
1.950974
1.8972819
2.7453946
4.1093205
5.1676568
5.330941
4.703044
3.5778723
2.3403899
1.3281618
0.68346748
0.32993249
0.15168919
0.066396803
0.027346141
0.010359892
0.0034788157
0.00098479982
0.00026510647
0.00031171567
0.002187511
0.10746549
0.14426311
0.29785856
0.73774266
1.4686869
2.2736187
2.8020444
2.8304952
2.4560841
1.9465581
1.8926695
2.7391478
4.099945
5.1534031
5.3132171
4.6842839
3.5611036
2.3276595
1.3202695
0.67923159
0.3278546
0.15072964
0.065976781
0.027173397
0.010294575
0.0034569571
0.00097872149
0.00026376778
0.00031105118
0.0021834818
0.10751827
0.14402448
0.29604305
0.73279843
1.46091
2.2647635
2.7940948
2.8244019
2.4511689
1.9421052
1.8880573
2.7330018
4.090735
5.1392967
5.2955738
4.6655439
3.5443267
2.3149261
1.3123826
0.67500307
0.32578226
0.14977332
0.065558387
0.027001375
0.010229541
0.0034351926
0.00097266379
0.00026241676
0.00031031722
0.0021789268
0.10757906
0.14379834
0.2942561
0.72789405
1.4531686
2.2559401
2.786163
2.8183079
2.4462416
1.9376337
1.8834502
2.7269294
4.0816477
5.1253041
5.2779929
4.6468125
3.527524
2.3021557
1.304465
0.67075482
0.32369897
0.14881151
0.065137456
0.026828273
0.01016409
0.0034132864
0.0009665653
0.00026105362
0.00030956568
0.0021742465
0.10764806
0.1435849
0.29249786
0.72302893
1.4454623
2.2471462
2.7782492
2.8122186
2.4413106
1.933154
1.878849
2.7209081
4.0726456
5.1113919
5.2604607
4.6281029
3.5107275
2.289387
1.296548
0.66650644
0.32161532
0.14784941
0.06471636
0.026655092
0.010098605
0.0033913678
0.00096046223
0.00025968643
0.00030880082
0.0021694668
0.10772544
0.14338431
0.29076837
0.71820277
1.4377908
2.2383803
2.7703532
2.8061368
2.4363816
1.9286729
1.8742543
2.714922
4.0637013
5.0975354
5.2429685
4.6094232
3.493956
2.2766415
1.2886478
0.66226772
0.3195364
0.14688946
0.064296181
0.026482281
0.010033259
0.0033694946
0.00095437095
0.00025831959
0.00030802778
0.0021646236
0.10781136
0.14319665
0.28906764
0.71341548
1.4301538
2.2296412
2.7624746
2.8000645
2.4314578
1.9241949
1.8696663
2.7089603
4.0547966
5.0837179
5.2255108
4.5907771
3.47722
2.2639301
1.2807726
0.65804321
0.31746454
0.14593273
0.063877402
0.026310042
0.0099681276
0.0033476931
0.00094829905
0.00025695546
0.00030725023
0.0021597434
0.10790593
0.14302199
0.28739569
0.70866704
1.4225514
2.2209282
2.7546131
2.7940023
2.4265413
1.919723
1.865085
2.7030154
4.0459179
5.0699274
5.2080817
4.5721684
3.4605289
2.2512643
1.2729308
0.65383826
0.31540258
0.14498062
0.063460642
0.026138633
0.00990331
0.0033259963
0.00094225585
0.00025559636
0.00030647029
0.0021548407
0.10800929
0.14286036
0.28575247
0.70395754
1.4149837
2.2122407
2.7467682
2.7879507
2.4216336
1.9152591
1.8605105
2.6970821
4.0370563
5.0561562
5.1906779
4.553599
3.4438869
2.2386484
1.2651256
0.6496544
0.31335123
0.14403343
0.063046037
0.025968107
0.0098388256
0.0033044109
0.0009362432
0.00025424286
0.00030568881
0.0021499216
0.10812155
0.14271181
0.28413799
0.69928709
1.4074505
2.2035783
2.7389396
2.78191
2.4167354
1.9108043
1.8559427
2.6911568
4.0282052
5.0423983
5.173298
4.5350697
3.4272974
2.2260863
1.2573602
0.64549385
0.31131171
0.14309178
0.062633861
0.025798581
0.009774719
0.0032829518
0.00093026547
0.00025289626
0.00030490786
0.0021450008
0.10824279
0.14257635
0.28255222
0.69465589
1.399952
2.1949406
2.7311272
2.7758803
2.411847
1.9063595
1.8513818
2.685237
4.0193611
5.0286493
5.1559391
4.5165799
3.4107614
2.2135793
1.2496354
0.64135678
0.30928404
0.14215564
0.062224106
0.025630051
0.0097109892
0.0032616186
0.00092432254
0.00025155667
0.0003041279
0.0021400818
0.10837314
0.14245402
0.28099517
0.69006406
1.3924883
2.1863277
2.7233307
2.7698614
2.4069685
1.9019253
1.8468275
2.6793209
4.0105203
5.0149069
5.1385991
4.498131
3.3942811
2.2011303
1.2419533
0.63724466
0.30726905
0.14122543
0.061816957
0.025462596
0.009647666
0.0032404216
0.00091841725
0.0002502247
0.00030334921
0.0021351664
0.10851266
0.14234484
0.27946681
0.68551181
1.3850596
2.1777393
2.71555
2.7638532
2.4021002
1.8975022
1.84228
2.6734073
4.0016802
5.0011688
5.1212786
4.4797225
3.3778561
2.1887384
1.234313
0.63315685
0.30526635
0.14030095
0.061412322
0.025296174
0.0095847341
0.0032193555
0.0009125482
0.00024890011
0.00030257185
0.0021302551
0.10866146
0.14224882
0.27796708
0.68099928
1.3776658
2.1691754
2.7077851
2.7578555
2.397242
1.8930902
1.8377391
2.6674952
3.9928395
4.9874326
5.1039756
4.4613537
3.3614873
2.1764052
1.2267163
0.62909443
0.30327656
0.13938252
0.061010346
0.025130847
0.0095222161
0.003198428
0.0009067176
0.0002475836
0.00030179697
0.0021253564
0.1088196
0.14216596
0.27649595
0.67652667
1.3703072
2.1606359
2.7000358
2.7518682
2.3923937
1.8886896
1.8332049
2.6615843
3.9839977
4.973698
5.0866886
4.4430244
3.3451739
2.1641294
1.2191617
0.62505642
0.30129908
0.13846983
0.060610887
0.024966555
0.0094600891
0.0031776313
0.00090092322
0.00024627463
0.00030102421
0.002120468
0.10898717
0.14209628
0.27505338
0.67209411
1.3629837
2.152121
2.6923022
2.7458911
2.3875553
1.8843003
1.8286774
2.655674
3.9751531
4.9599643
5.0694187
4.4247351
3.3289165
2.1519121
1.21165
0.62104345
0.29933432
0.13756309
0.060214048
0.024803344
0.0093983715
0.0031569716
0.00089516684
0.00024497357
0.00030025365
0.0021155899
0.10916424
0.14203977
0.2736393
0.66770174
1.3556955
2.1436306
2.6845841
2.739924
2.3827266
1.8799223
1.8241567
2.6497642
3.9663053
4.9462306
5.0521654
4.4064848
3.3127143
2.1397519
1.2041803
0.61705481
0.29738187
0.13666208
0.059819724
0.024641168
0.0093370451
0.0031364427
0.00088944671
0.00024368008
0.00029948534
0.0021107229
0.10935087
0.14199643
0.27225362
0.66334968
1.3484427
2.1351647
2.6768816
2.7339667
2.3779076
1.8755555
1.8196427
2.6438547
3.9574543
4.932496
5.0349265
4.3882737
3.2965684
2.1276506
1.1967541
0.6130915
0.29544228
0.1357671
0.059428051
0.024480083
0.0092761321
0.0031160523
0.00088376498
0.00024239479
0.00029872005
0.0021058725
0.10954713
0.14196623
0.27089622
0.65903805
1.3412253
2.1267234
2.6691948
2.7280189
2.3730979
1.8711999
1.8151356
2.6379456
3.9486002
4.9187612
5.0177035
4.3701015
3.2804769
2.1156056
1.1893689
0.60915189
0.29351464
0.13487768
0.059038814
0.024319999
0.009215597
0.0030957884
0.00087811833
0.00024111688
0.00029795704
0.0021010336
0.10975305
0.14194916
0.26956704
0.65476695
1.3340434
2.1183067
2.6615236
2.7220807
2.3682974
1.8668554
1.8106353
2.6320369
3.9397419
4.9050258
5.0004967
4.3519679
3.2644401
2.1036177
1.1820256
0.60523667
0.29159937
0.13399405
0.058652128
0.024160968
0.0091554603
0.0030756579
0.00087250874
0.00023984683
0.00029719677
0.0020962095
0.1099687
0.14194519
0.26826594
0.65053641
1.3268971
2.1099147
2.6538682
2.7161519
2.3635059
1.862522
1.8061421
2.626129
3.9308803
4.8912895
4.9833045
4.3338725
3.248458
2.0916863
1.1747236
0.60134534
0.28969617
0.13311604
0.058267903
0.024002948
0.0090957054
0.0030556549
0.00086693448
0.00023858421
0.0002964389
0.0020913977
0.11019411
0.14195429
0.26699276
0.64634651
1.3197863
2.1015474
2.6462285
2.7102321
2.3587233
1.8581995
1.8016561
2.6202219
3.9220157
4.8775525
4.9661272
4.315816
3.2325309
2.0798121
1.1674637
0.59747843
0.28780535
0.13224383
0.057886227
0.023845978
0.009036348
0.0030357849
0.0008613971
0.00023732946
0.00029568405
0.0020866027
0.11042932
0.14197641
0.26574735
0.64219724
1.3127112
2.0932049
2.6386047
2.7043213
2.3539493
1.8538879
1.7971773
2.614316
3.9131483
4.8638157
4.9489665
4.2977974
3.2166564
2.0679922
1.1602432
0.59363417
0.28592593
0.13137691
0.057506872
0.023689962
0.0089773513
0.0030160356
0.00085589318
0.0002360818
0.00029493163
0.0020818205
0.11067435
0.14201151
0.26452954
0.63808863
1.3056718
2.084887
2.6309968
2.6984195
2.3491839
1.8495873
1.7927059
2.6084118
3.9042779
4.8500789
4.9318213
4.2798168
3.2008359
2.0562281
1.1530634
0.58981356
0.28405849
0.1305156
0.05712998
0.02353496
0.0089187382
0.0029964148
0.00085042495
0.00023484178
0.00029418205
0.0020770541
0.11092923
0.14205952
0.26333917
0.63402063
1.298668
2.076594
2.623405
2.6925267
2.3444269
1.8452975
1.7882421
2.6025097
3.8954057
4.8363424
4.9146911
4.2618748
3.1850692
2.0445191
1.1459236
0.586016
0.28220264
0.12965967
0.056755445
0.023380924
0.0088604893
0.0029769155
0.00084499036
0.00023360882
0.00029343474
0.0020722993
0.11119398
0.14212038
0.26217604
0.6299932
1.2916999
2.0683257
2.6158293
2.6866425
2.3396782
1.8410185
1.7837861
2.5966099
3.886532
4.8226069
4.8975782
4.2439717
3.1693563
2.0328656
1.1388242
0.58224185
0.28035865
0.12880929
0.056383344
0.023227892
0.0088026195
0.0029575431
0.00083959096
0.00023238339
0.00029269031
0.0020675606
0.1114686
0.14219403
0.26103991
0.62600626
1.2847675
2.0600821
2.6082698
2.6807671
2.3349377
1.8367503
1.7793381
2.5907129
3.8776572
4.8088733
4.8804825
4.2261063
3.1536953
2.0212651
1.1317631
0.57848955
0.27852563
0.12796399
0.05601347
0.023075773
0.0087450949
0.0029382859
0.0008342235
0.00023116474
0.00029194839
0.0020628356
0.1117531
0.14228039
0.25993055
0.62205971
1.2778707
2.0518633
2.6007267
2.6749004
2.3302054
1.8324929
1.7748982
2.5848194
3.8687818
4.7951416
4.8634026
4.2082797
3.1380883
2.0097197
1.1247419
0.57476032
0.27670425
0.12712413
0.05564598
0.022924635
0.0086879409
0.0029191525
0.00082889035
0.00022995343
0.00029120931
0.0020581266
0.11204746
0.14237939
0.25884776
0.61815347
1.2710097
2.0436692
2.5932
2.6690424
2.3254812
1.8282462
1.7704668
2.5789299
3.8599069
4.7814128
4.8463413
4.1904927
3.1225344
1.9982278
1.1177593
0.57105322
0.27489398
0.12628942
0.055280744
0.02277442
0.0086311348
0.0029001354
0.00082358937
0.0002287489
0.00029047245
0.002053429
0.11235169
0.14249093
0.25779125
0.61428732
1.2641843
2.0354997
2.5856899
2.6631931
2.3207652
1.8240102
1.7660438
2.5730448
3.8510329
4.7676876
4.829299
4.172745
3.1070337
1.9867903
1.1108159
0.56736878
0.27309516
0.12546006
0.054917856
0.022625172
0.0085746942
0.0028812406
0.00081832235
0.0002275517
0.00028973857
0.0020487483
0.11266575
0.14261491
0.25676078
0.61046116
1.2573945
2.0273549
2.5781964
2.6573524
2.3160572
1.8197849
1.7616297
2.5671646
3.8421606
4.7539672
4.8122747
4.155036
3.0915853
1.9754051
1.1039099
0.56370554
0.27130694
0.1246356
0.054557104
0.022476798
0.0085185823
0.0028624553
0.00081308567
0.00022636094
0.00028900706
0.0020440808
0.11298963
0.14275124
0.25575604
0.60667479
1.2506403
2.0192345
2.5707198
2.6515205
2.3113573
1.8155704
1.7572246
2.5612901
3.8332906
4.7402516
4.7952699
4.1373676
3.0761906
1.9640738
1.0970427
0.56006457
0.26952993
0.12381636
0.054198642
0.022329366
0.0084628261
0.0028437888
0.00080788187
0.0002251772
0.00028827826
0.0020394285
0.1133233
0.1428998
0.25477683
0.60292806
1.2439217
2.0111386
2.5632599
2.6456973
2.3066655
1.8113667
1.7528287
2.5554217
3.824424
4.7265421
4.7782865
4.1197398
3.0608488
1.9527951
1.0902129
0.55644499
0.26776362
0.12300208
0.053842345
0.022182821
0.008407404
0.0028252336
0.00080270883
0.00022399991
0.00028755158
0.0020347869
0.11366671
0.14306049
0.25382286
0.59922064
1.2372387
2.003067
2.555817
2.6398829
2.3019819
1.8071739
1.7484424
2.54956
3.8155614
4.7128398
4.7613241
4.1021528
3.0455608
1.9415704
1.0834218
0.5528476
0.26600851
0.12219302
0.05348834
0.022037217
0.0083523379
0.0028067974
0.00079756879
0.00022282971
0.00028682774
0.0020301615
0.11401983
0.14323317
0.25289379
0.5955523
1.2305911
1.9950196
2.5483911
2.6340773
2.2973066
1.8029921
1.7440658
2.5437056
3.8067038
4.6991456
4.7443826
4.0846068
3.0303259
1.9303977
1.0766673
0.54927084
0.26426364
0.12138868
0.053136385
0.02189245
0.0082975857
0.0027884659
0.00079245764
0.00022166565
0.00028610611
0.0020255481
0.1143826
0.14341773
0.2519893
0.59192279
1.223979
1.9869962
2.5409821
2.6282806
2.2926397
1.7988214
1.7396991
2.5378589
3.7978514
4.6854597
4.7274649
4.0671037
3.0151453
1.9192783
1.0699509
0.54571584
0.26252972
0.12058943
0.05278666
0.021748599
0.0082431789
0.0027702496
0.00078737848
0.00022050849
0.00028538736
0.0020209513
0.11475495
0.14361402
0.25110903
0.58833158
1.2174024
1.9789967
2.5335903
2.6224928
2.2879812
1.7946619
1.7353425
2.5320206
3.7890055
4.6717837
4.7105716
4.0496431
3.0000186
1.9082116
1.0632716
0.54218194
0.26080632
0.11979505
0.052439058
0.021605616
0.008189099
0.0027521421
0.00078232937
0.00021935764
0.00028467067
0.0020163651
0.11513684
0.14382191
0.25025265
0.5847783
1.2108612
1.971021
2.5262155
2.616714
2.2833313
1.7905137
1.7309963
2.5261911
3.7801667
4.6581186
4.6937015
4.0322257
2.9849471
1.8971991
1.0566307
0.53866992
0.25909393
0.1190058
0.052093703
0.021463557
0.0081353674
0.0027341508
0.00077731237
0.00021821362
0.00028395661
0.0020117937
0.11552817
0.14404125
0.24941984
0.58126269
1.2043554
1.9630688
2.5188579
2.6109442
2.27869
1.786377
1.7266608
2.5203709
3.771336
4.6444652
4.6768575
4.0148523
2.9699295
1.8862381
1.0500255
0.5351779
0.25739142
0.11822108
0.051750314
0.021322298
0.0080819362
0.0027162593
0.00077232289
0.00021707543
0.00028324465
0.0020072336
0.11592888
0.14427189
0.24861023
0.5777844
1.197885
1.9551399
2.5115172
2.6051837
2.2740576
1.7822517
1.722336
2.5145605
3.7625136
4.630824
4.6600407
3.997524
2.9549673
1.8753305
1.0434581
0.53170735
0.25569969
0.11744137
0.051409119
0.02118194
0.0080288447
0.0026984813
0.00076736488
0.00021594405
0.00028253569
0.0020026909
0.11633888
0.14451366
0.24782344
0.5743429
1.1914498
1.9472342
2.5041936
2.5994323
2.2694342
1.7781382
1.7180221
2.5087604
3.7537008
4.6171968
4.6432509
3.9802409
2.9400607
1.8644762
1.0369278
0.52825774
0.25401836
0.11666646
0.051070011
0.021042434
0.0079760726
0.0026808095
0.00076243617
0.00021481881
0.00028182856
0.0019981574
0.11675808
0.14476641
0.24705905
0.57093765
1.18505
1.9393514
2.496887
2.5936901
2.2648199
1.7740365
1.7137193
2.5029708
3.7448981
4.6035841
4.6264888
3.9630044
2.9252111
1.8536763
1.0304354
0.52482965
0.25234781
0.11589656
0.050733093
0.020903826
0.0079236389
0.0026632505
0.00075753865
0.00021370018
0.00028112388
0.0019936374
0.11718638
0.14502995
0.24631672
0.56756808
1.1786855
1.9314912
2.4895971
2.5879573
2.2602148
1.7699468
1.7094277
2.4971921
3.7361063
4.5899868
4.6097572
3.9458149
2.9104168
1.8429282
1.0239787
0.52142132
0.25068701
0.11513113
0.050398112
0.020766006
0.0078715006
0.0026457895
0.00075266813
0.00021258731
0.00028042145
0.00198913
0.11762368
0.14530411
0.24559604
0.56423354
1.1723565
1.9236534
2.4823241
2.5822338
2.2556192
1.7658691
1.7051475
2.4914249
3.7273257
4.5764056
4.5930562
3.9286733
2.8956798
1.8322344
1.0175598
0.5180345
0.24903697
0.11437069
0.050065317
0.020629083
0.0078197005
0.0026284412
0.00074782881
0.00021148117
0.00027972199
0.00198464
0.11806986
0.14558871
0.24489658
0.56093339
1.1660627
1.9158378
2.4750676
2.5765198
2.2510331
1.7618038
1.7008788
2.4856692
3.7185575
4.5628425
4.5763856
3.9115803
2.8810006
1.8215946
1.0111782
0.51466848
0.24739723
0.113615
0.04973458
0.020492999
0.007768215
0.0026111974
0.00074301821
0.00021038095
0.00027902408
0.0019801569
0.11852482
0.14588357
0.2442179
0.55766692
1.1598045
1.908044
2.4678275
2.5708152
2.2464567
1.7577509
1.6966216
2.4799252
3.7098021
4.5492973
4.559748
3.8945374
2.8663799
1.8110093
1.0048341
0.51132361
0.24576805
0.1128642
0.049405983
0.020357792
0.0077170595
0.0025940637
0.00073823806
0.00020928722
0.00027832859
0.0019756871
0.11898842
0.14618849
0.24355956
0.55443333
1.1535819
1.9002718
2.4606036
2.5651201
2.2418903
1.7537107
1.6923759
2.4741933
3.7010601
4.5357715
4.5431448
3.8775442
2.8518161
1.8004761
0.99852549
0.50799836
0.24414853
0.11211782
0.049079301
0.020223364
0.0076661956
0.0025770268
0.00073348466
0.00020819926
0.00027763551
0.0019712311
0.11946054
0.14650327
0.24292112
0.55123178
1.1473949
1.8925209
2.4533957
2.5594346
2.2373338
1.7496832
1.6881419
2.4684737
3.6923321
4.5222661
4.5265749
3.860602
2.8373116
1.7899982
0.99225502
0.50469459
0.24253973
0.11137642
0.048754794
0.020089827
0.0076156673
0.0025601017
0.00072876217
0.00020711794
0.00027694519
0.001966791
0.11994105
0.14682771
0.24230213
0.54806122
1.1412438
1.884791
2.4462035
2.5537587
2.2327876
1.7456687
1.6839195
2.4627664
3.6836187
4.5087821
4.5100403
3.8437119
2.8228667
1.7795746
0.98602148
0.50141134
0.24094106
0.11063966
0.0484323
0.019957111
0.0075654466
0.0025432785
0.00072406769
0.00020604234
0.00027625618
0.001962356
0.1204298
0.1471616
0.24170209
0.54492065
1.1351288
1.8770816
2.4390267
2.5480923
2.2282516
1.7416673
1.6797086
2.4570712
3.6749201
4.4953194
4.4935429
3.8268749
2.808482
1.769206
0.97982537
0.49814908
0.23935284
0.10990775
0.048111926
0.019825263
0.0075155531
0.0025265644
0.00071940335
0.00020497317
0.00027556972
0.0019579351
0.12092666
0.14750473
0.24112051
0.54180905
1.1290502
1.8693925
2.4318651
2.5424356
2.223726
1.7376791
1.6755093
2.4513884
3.6662369
4.4818794
4.4770825
3.8100905
2.7941564
1.7588907
0.97366526
0.4949067
0.23777441
0.10918033
0.047793494
0.019694205
0.0074659557
0.0025099487
0.00071476616
0.00020390985
0.00027488571
0.0019535281
0.12143147
0.14785689
0.24055691
0.53872552
1.1230082
1.8617231
2.4247183
2.5367885
2.219211
1.7337043
1.6713214
2.4457181
3.6575694
4.4684631
4.4606589
3.7933603
2.7798923
1.7486316
0.96754349
0.49168577
0.23620665
0.10845785
0.047477222
0.019564033
0.0074166912
0.002493444
0.00071015971
0.0002028531
0.0002742042
0.0019491346
0.12194407
0.14821784
0.24001082
0.53566887
1.1170033
1.854073
2.4175859
2.531151
2.2147065
1.729743
1.6671448
2.4400601
3.6489179
4.455071
4.4442752
3.7766856
2.7656894
1.7384271
0.96145842
0.4884851
0.23464887
0.10773995
0.047162937
0.01943467
0.0073677303
0.0024770401
0.00070558104
0.00020180207
0.00027352394
0.0019447456
0.12246432
0.14858738
0.23948178
0.53263799
1.1110332
1.8464457
2.4104677
2.5255231
2.2102128
1.7257953
1.6629792
2.4344142
3.6402828
4.441703
4.4279318
3.7600666
2.7515485
1.7282782
0.95541092
0.48530541
0.23310152
0.10702688
0.046850761
0.019306172
0.0073190952
0.0024607448
0.00070103243
0.00020075753
0.00027284645
0.0019403721
0.12299203
0.14896526
0.23896929
0.52963199
1.1050969
1.838842
2.4033634
2.5199048
2.2057298
1.7218612
1.6588245
2.4287808
3.6316649
4.4283609
4.4116277
3.7435031
2.7374688
1.7181839
0.94939992
0.48214582
0.23156405
0.10631834
0.04654055
0.019178473
0.0072707598
0.0024445489
0.00069651128
0.00019971887
0.00027217135
0.0019360116
0.12352704
0.14935127
0.2384729
0.52664999
1.0991945
1.8312618
2.3962727
2.5142961
2.2012576
1.7179409
1.6546803
2.42316
3.6230642
4.4150452
4.3953646
3.7269968
2.7234522
1.708146
0.94342701
0.47900741
0.23003711
0.10561467
0.046232464
0.019051646
0.0072227527
0.0024284626
0.00069202039
0.00019868661
0.00027149844
0.0019316619
0.12406919
0.14974517
0.23799219
0.52369129
1.0933258
1.8237046
2.3891955
2.5086968
2.1967963
1.7140343
1.6505462
2.4175523
3.6144814
4.401756
4.3791447
3.7105485
2.7094983
1.6981629
0.93749066
0.47588911
0.22852005
0.10491553
0.045926349
0.018925622
0.0071750474
0.0024124768
0.00068755729
0.00019766014
0.00027082702
0.0019273177
0.12461828
0.15014673
0.23752681
0.52075532
1.0874909
1.8161701
2.3821313
2.5031071
2.1923458
1.7101414
1.6464216
2.4119582
3.6059171
4.3884937
4.362967
3.6941582
2.695608
1.6882364
0.93159215
0.47279186
0.22701346
0.10422125
0.045622357
0.01880047
0.0071276706
0.0023966009
0.00068312474
0.00019664035
0.0002701585
0.0019229893
0.12517414
0.15055571
0.23707643
0.51784176
1.0816894
1.8086581
2.3750799
2.4975269
2.1879063
1.7062623
1.6423058
2.4063792
3.5973722
4.3752598
4.3468312
3.6778257
2.6817805
1.6783651
0.92573035
0.46971478
0.22551678
0.10353152
0.045320339
0.018676123
0.0070805961
0.0023808255
0.00067872005
0.00019562654
0.00026949215
0.0019186715
0.12573658
0.15097188
0.23664077
0.51495042
1.0759211
1.8011681
2.3680411
2.4919561
2.1834777
1.7023969
1.6381978
2.4008172
3.5888465
4.3620542
4.3307398
3.6615528
2.668017
1.6685501
0.91990622
0.46665858
0.22403046
0.10284658
0.045020414
0.018552635
0.0070338457
0.0023651582
0.00067434539
0.00019461912
0.00026882795
0.0019143633
0.12630541
0.15139501
0.23621954
0.5120814
1.0701858
1.7937
2.3610146
2.4863946
2.1790601
1.6985451
1.634096
2.3952754
3.5803404
4.3488763
4.3146931
3.6453391
2.654317
1.6587901
0.91411855
0.4636224
0.222554
0.10216617
0.044722463
0.018429954
0.0069873991
0.0023495923
0.00066999881
0.00019361763
0.00026816555
0.0019100622
0.12688044
0.15182487
0.23581251
0.50923498
1.0644828
1.7862535
2.3540003
2.4808426
2.1746535
1.6947067
1.6300038
2.3897517
3.5718536
4.3357263
4.2986891
3.6291846
2.6406816
1.649087
0.90836885
0.4606073
0.22108802
0.10149063
0.044426641
0.018308148
0.0069412835
0.0023341374
0.00066568311
0.0001926229
0.00026750614
0.0019057766
0.12746146
0.15226121
0.23541952
0.50641156
1.058812
1.7788284
2.3469978
2.4752999
2.1702581
1.6908814
1.6259246
2.384243
3.5633855
4.322605
4.2827287
3.6130891
2.6271093
1.6394388
0.90265533
0.45761202
0.21963178
0.10081956
0.044132767
0.018187138
0.0068954671
0.0023187824
0.00066139522
0.00019163417
0.00026684879
0.0019014994
0.12804828
0.1527038
0.23504044
0.50361169
1.0531727
1.7714245
2.3400071
2.4697663
2.1658738
1.6870691
1.6218585
2.3787488
3.554935
4.3095114
4.2668136
3.5970535
2.6136009
1.6298464
0.8969789
0.45463727
0.21818571
0.10015321
0.043840957
0.018066977
0.006849972
0.0023035353
0.00065713747
0.000190652
0.00026619387
0.0018972327
0.12864069
0.1531524
0.2346751
0.50083587
1.0475644
1.7640416
2.3330278
2.464242
2.1615006
1.6832698
1.6178052
2.3732689
3.5465018
4.2964446
4.2509425
3.5810774
2.6001562
1.6203089
0.8913388
0.45168245
0.21674948
0.099491385
0.04355112
0.017947625
0.0068047821
0.0022883902
0.00065290825
0.00018967601
0.00026554109
0.0018929745
0.12923849
0.15360677
0.2343233
0.49808468
1.0419865
1.7566795
2.32606
2.458727
2.1571386
1.6794835
1.6137645
2.367803
3.538086
4.2834051
4.2351136
3.5651606
2.5867763
1.6108281
0.88573646
0.44874859
0.21532367
0.098834412
0.043263414
0.01782915
0.0067599246
0.0022733567
0.00064871021
0.00018870691
0.00026489131
0.0018887306
0.12984145
0.15406666
0.23398484
0.49535861
1.0364385
1.7493382
2.3191034
2.4532209
2.1527876
1.67571
1.6097363
2.3623506
3.5296873
4.2703933
4.219329
3.5493026
2.5734586
1.6014012
0.8801695
0.44583407
0.21390738
0.098181812
0.042977613
0.017711456
0.0067153622
0.002258422
0.00064453977
0.00018774376
0.00026424347
0.0018844929
0.13044937
0.15453181
0.23365951
0.49265804
1.0309198
1.7420175
2.3121578
2.4477238
2.1484477
1.6719493
1.6057202
2.3569114
3.5213046
4.2574078
4.2035889
3.533504
2.5602042
1.5920291
0.87463882
0.44293962
0.21250105
0.097533842
0.042693845
0.017594601
0.006671118
0.0022435946
0.00064039939
0.00018678724
0.00026359836
0.0018802667
0.13106203
0.15500197
0.23334709
0.48998329
1.0254299
1.7347172
2.3052232
2.4422358
2.1441187
1.6682014
1.6017161
2.3514852
3.512938
4.2444483
4.1878911
3.5177639
2.5470129
1.5827114
0.86914405
0.44006489
0.21110446
0.096890363
0.042412042
0.017478553
0.0066271792
0.0022288699
0.00063628784
0.00018583708
0.00026295561
0.0018760492
0.13167921
0.15547686
0.23304733
0.48733446
1.0199683
1.7274373
2.2982992
2.4367566
2.1398007
1.664466
1.5977238
2.3460717
3.5045874
4.2315152
4.1722351
3.5020823
2.5338852
1.5734492
0.86368624
0.43721067
0.20971809
0.096251649
0.042132333
0.017363371
0.0065835695
0.0022142561
0.00063220757
0.00018489393
0.00026231589
0.0018718445
0.13230068
0.15595624
0.23275988
0.48471164
1.0145344
1.7201776
2.2913857
2.431286
2.1354935
1.6607432
1.593743
2.3406704
3.4962523
4.2186085
4.156623
3.4864586
2.5208183
1.5642394
0.85826258
0.43437506
0.20834087
0.095617153
0.041854466
0.017248945
0.0065402459
0.0021997386
0.00062815437
0.00018395676
0.00026167826
0.0018676459
0.13292622
0.15643982
0.2324844
0.4821147
1.0091279
1.712938
2.2844825
2.4258241
2.1311971
1.6570328
1.5897734
2.3352809
3.4879321
4.2057269
4.141054
3.4708929
2.5078134
1.5550831
0.85287434
0.43155907
0.20697341
0.094987195
0.041578596
0.017135344
0.0064972369
0.0021853271
0.00062413113
0.00018302636
0.00026104374
0.0018634603
0.13355559
0.15692733
0.23222051
0.47954353
1.0037483
1.7057181
2.2775892
2.4203706
2.1269114
1.6533348
1.585815
2.3299031
3.4796265
4.1928703
4.1255257
3.4553848
2.4948707
1.5459803
0.84752134
0.42876242
0.20561551
0.094361662
0.041304665
0.017022542
0.0064545312
0.002171018
0.00062013668
0.00018210234
0.00026041168
0.0018592827
0.13418857
0.15741848
0.23196786
0.47699792
0.99839523
1.698518
2.2707056
2.4149254
2.1226363
1.6496489
1.5818672
2.3245362
3.4713352
4.1800389
4.110039
3.4399341
2.4819901
1.5369316
0.84220423
0.42598569
0.20426754
0.093740757
0.041032776
0.016910586
0.0064121474
0.0021568178
0.00061617296
0.00018118521
0.00025978254
0.0018551158
0.13482492
0.15791299
0.23172607
0.47447755
0.99306833
1.6913372
2.2638314
2.4094884
2.1183717
1.6459751
1.5779299
2.3191799
3.4630577
4.1672322
4.094595
3.4245397
2.4691687
1.5279335
0.83692013
0.42322693
0.20292841
0.09312393
0.040762669
0.016799364
0.0063700419
0.0021427116
0.00061223585
0.00018027408
0.00025915571
0.0018509553
0.13546441
0.15841058
0.23149476
0.47198216
0.98776719
1.6841756
2.2569664
2.4040594
2.1141173
1.6423133
1.5740027
2.3138337
3.4547931
4.1544489
4.0791917
3.4092019
2.456408
1.5189879
0.83167063
0.4204873
0.20159881
0.092511545
0.040494518
0.016688952
0.0063282458
0.0021287104
0.00060832859
0.00017936986
0.00025853236
0.0018468094
0.1361068
0.15891096
0.23127348
0.46951134
0.98249149
1.677033
2.2501101
2.3986383
2.1098731
1.6386632
1.5700854
2.3084971
3.4465411
4.141689
4.0638276
3.3939202
2.4437081
1.5100945
0.8264554
0.4177665
0.20027852
0.091903473
0.040228261
0.016579321
0.0062867468
0.0021148094
0.00060444975
0.00017847206
0.00025791154
0.0018426707
0.13675186
0.15941383
0.23106181
0.4670648
0.9772409
1.669909
2.2432623
2.3932247
2.1056388
1.6350248
1.5661777
2.3031695
3.4383007
4.128952
4.0485041
3.3786942
2.4310683
1.5012531
0.82127475
0.41506486
0.19896779
0.091299864
0.039963974
0.016470507
0.0062455598
0.0021010141
0.00060060085
0.00017758105
0.00025729362
0.0018385416
0.13739931
0.15991921
0.23085942
0.46464217
0.9720151
1.6628033
2.2364226
2.3878188
2.1014144
1.6313978
1.5622792
2.2978504
3.4300717
4.1162374
4.0332209
3.3635225
2.4184857
1.4924607
0.81612593
0.41238053
0.19766556
0.090700174
0.039701403
0.0163624
0.0062046417
0.0020873098
0.00059677775
0.00017669591
0.00025667824
0.0018344198
0.13804883
0.16042691
0.2306664
0.46224306
0.96681381
1.6557159
2.2295907
2.3824203
2.0971995
1.627782
1.5583896
2.2925394
3.4218532
4.1035437
4.0179756
3.3484053
2.4059621
1.4837194
0.81101073
0.40971479
0.19637259
0.090104804
0.039440738
0.016255084
0.0061640256
0.0020737082
0.00059298384
0.0001758176
0.00025606654
0.0018303131
0.13870014
0.16093663
0.23048249
0.45986715
0.96163669
1.6486461
2.2227663
2.3770289
2.0929941
1.6241772
1.5545087
2.287236
3.4136448
4.0908709
4.0027674
3.3333418
2.3934971
1.4750283
0.80592845
0.40706712
0.19508858
0.08951359
0.039181899
0.016148523
0.0061236969
0.0020602039
0.00058921759
0.00017494557
0.00025545732
0.0018262125
0.13935298
0.16144804
0.23030732
0.45751398
0.95648345
1.6415939
2.2159489
2.3716447
2.088798
1.6205832
1.5506361
2.2819396
3.4054453
4.0782184
3.9875977
3.3183315
2.3810896
1.4663871
0.8008792
0.40443777
0.19381371
0.088926656
0.038924952
0.016042748
0.0060836689
0.0020468019
0.00058548048
0.00017408022
0.00025485097
0.0018221207
0.14000708
0.16196084
0.23014048
0.45518324
0.95135376
1.6345589
2.2091384
2.3662673
2.0846109
1.6169997
1.5467714
2.2766499
3.3972546
4.065585
3.9724649
3.3033728
2.368737
1.457793
0.79586072
0.40182515
0.19254707
0.088343515
0.038669666
0.015937658
0.0060439016
0.0020334881
0.00058176855
0.00017322074
0.00025424732
0.0018180366
0.14066218
0.16247471
0.22998159
0.4528745
0.94624736
1.6275407
2.202334
2.3608968
2.0804327
1.6134264
1.5429143
2.2713664
3.3890719
4.0529697
3.9573665
3.2884656
2.3564411
1.4492483
0.79087475
0.39923051
0.19128938
0.087764551
0.038416225
0.015833333
0.0060044272
0.0020202737
0.00057808498
0.00017236794
0.00025364735
0.0018139672
0.141318
0.16298928
0.22983034
0.45058738
0.94116294
1.6205394
2.1955376
2.3555329
2.0762631
1.6098632
1.5390646
2.2660886
3.3808965
4.0403725
3.942303
3.2736092
2.3442009
1.4407513
0.78592005
0.39665303
0.19004021
0.087189544
0.038164527
0.015729729
0.0059652282
0.0020071527
0.00057442791
0.00017152114
0.00025304972
0.0018099026
0.14197426
0.16350418
0.22968641
0.44832155
0.93609927
1.6135548
2.1887507
2.3501754
2.0721018
1.6063097
1.5352219
2.2608162
3.3727275