/*--------------------------------*- C++ -*----------------------------------*\
| =========                 |                                                 |
| \\      /  F ield         | OpenFOAM: The Open Source CFD Toolbox           |
|  \\    /   O peration     | Version:  v2012                                 |
|   \\  /    A nd           | Website:  www.openfoam.com                      |
|    \\/     M anipulation  |                                                 |
\*---------------------------------------------------------------------------*/
FoamFile
{
    version     2.0;
    format      ascii;
    class       volScalarField;
    location    "800";
    object      Ma;
}
// * * * * * * * * * * * * * * * * * * * * * * * * * * * * * * * * * * * * * //

dimensions      [0 0 0 0 0 0 0];


internalField   nonuniform List<scalar> 
24000
(
0.045485958
0.045863509
0.04709167
0.048821725
0.049482139
0.048405554
0.046434282
0.044325202
0.042269848
0.04000877
0.037092808
0.033542574
0.02997275
0.026562229
0.023133952
0.019734173
0.016562245
0.013710496
0.011212542
0.0090802811
0.0072939143
0.0058083454
0.004574777
0.0035499241
0.0026977085
0.0019885049
0.0013979976
0.00090616407
0.00049646035
0.00015518123
0.045465194
0.045843035
0.047069163
0.048801031
0.049469241
0.048395751
0.046421492
0.044307637
0.042247559
0.039983174
0.037066239
0.033516209
0.029946511
0.026534744
0.023105148
0.019705365
0.016533872
0.013682731
0.01118569
0.0090546948
0.0072699933
0.005786521
0.0045554453
0.0035333688
0.0026840588
0.0019777502
0.0013900142
0.00090075354
0.00049338382
0.00015418383
0.045447184
0.045822241
0.047040096
0.048768651
0.049442623
0.048373536
0.046399193
0.044284043
0.042222556
0.039957258
0.03704114
0.033492434
0.029923895
0.026512121
0.02308239
0.019683983
0.016515127
0.013667327
0.011174012
0.0090466982
0.0072651332
0.0057840354
0.0045545897
0.0035335163
0.0026847331
0.0019786128
0.0013908437
0.00090141479
0.00049380448
0.00015433348
0.045428269
0.045801242
0.047012604
0.048739494
0.049419832
0.048354816
0.046379529
0.044261887
0.042197842
0.039930789
0.037014675
0.033466636
0.029898877
0.026486886
0.023057113
0.019660433
0.01649436
0.013649661
0.011159436
0.0090349463
0.007255737
0.0057765466
0.0045486532
0.0035288624
0.002681154
0.0019759427
0.0013889446
0.00090017116
0.00049311656
0.00015411626
0.045409284
0.045780199
0.04698519
0.048710409
0.049397161
0.048336146
0.046359692
0.044239435
0.042172761
0.039903918
0.036987688
0.033440243
0.029873312
0.026461192
0.023031475
0.01963658
0.016473295
0.013631722
0.011144672
0.0090231643
0.0072464902
0.005769366
0.0045431286
0.0035246637
0.0026780204
0.0019736678
0.0013873659
0.00089915885
0.00049256682
0.00015394595
0.045390213
0.045759193
0.046958019
0.048681687
0.049374877
0.048317795
0.046340094
0.044217088
0.042147673
0.039876963
0.036960476
0.033413508
0.029847347
0.026435075
0.02300538
0.019612243
0.016451731
0.013613282
0.011129433
0.0090109259
0.0072368185
0.0057617941
0.0045372548
0.0035201627
0.0026746355
0.0019711939
0.0013856383
0.00089804521
0.0004919594
0.00015375686
0.045371141
0.045738252
0.046930971
0.048653058
0.049352728
0.048299582
0.046320552
0.044194743
0.042122552
0.039849939
0.036933119
0.033386548
0.029821114
0.026408672
0.022978995
0.01958758
0.016429847
0.013594537
0.011113912
0.0089984403
0.0072269395
0.005754052
0.0045312425
0.0035155538
0.0026711669
0.0019686582
0.0013838675
0.00089690341
0.0004913367
0.000153563
0.045352098
0.04571739
0.046904038
0.048624517
0.049330645
0.048281421
0.046301042
0.0441724
0.042097422
0.039822881
0.036905675
0.03335945
0.029794718
0.026382095
0.022952403
0.019562711
0.016407756
0.013575602
0.01109821
0.0089857969
0.0072169232
0.005746194
0.0045251364
0.0035108682
0.0026676392
0.001966077
0.0013820641
0.00089574014
0.00049070213
0.00015336538
0.045333103
0.045696601
0.046877185
0.048595972
0.049308573
0.048263305
0.046281585
0.04415005
0.042072283
0.039795799
0.03687817
0.033332268
0.02976822
0.026355391
0.02292568
0.019537719
0.016385535
0.013556542
0.0110824
0.0089730594
0.0072068212
0.0057382634
0.0045189694
0.0035061341
0.0026640729
0.001963467
0.0013802396
0.00089456333
0.00049005985
0.00015316531
0.045314165
0.045675892
0.046850401
0.04856743
0.049286488
0.048245185
0.046262109
0.044127714
0.042047137
0.039768703
0.036850638
0.033305028
0.029741642
0.02632861
0.022898894
0.019512643
0.016363238
0.013537406
0.011066529
0.0089602626
0.0071966681
0.0057302888
0.0045127661
0.0035013701
0.0026604836
0.0019608395
0.0013784028
0.0008933782
0.00048941287
0.00015296381
0.045295289
0.045655246
0.046823649
0.048538868
0.049264367
0.048227072
0.046242658
0.044105384
0.042021986
0.039741598
0.03682309
0.033277749
0.029715012
0.026301786
0.022872057
0.019487523
0.016340904
0.013518241
0.011050622
0.008947434
0.0071864903
0.005722291
0.0045065418
0.0034965885
0.0026568804
0.0019582016
0.0013765583
0.00089218807
0.00048876318
0.00015276142
0.045276477
0.045634675
0.046796949
0.048510263
0.049242207
0.048208942
0.046223201
0.044083039
0.041996829
0.039714488
0.036795532
0.033250455
0.029688369
0.026274933
0.022845189
0.019462389
0.016318546
0.01349906
0.011034696
0.0089345879
0.0071762944
0.0057142777
0.0045003037
0.0034917959
0.0026532669
0.0019555559
0.0013747083
0.000890994
0.00048811137
0.00015255835
0.045257726
0.045614176
0.04677029
0.048481645
0.049219994
0.048190801
0.046203726
0.044060678
0.041971667
0.03968738
0.036767973
0.033223154
0.029661714
0.026248071
0.022818333
0.019437253
0.016296196
0.013479877
0.011018776
0.0089217469
0.0071660976
0.0057062626
0.0044940647
0.0034870013
0.0026496525
0.0019529086
0.0013728571
0.00088979905
0.00048745912
0.0001523551
0.045239037
0.045593744
0.046743681
0.048452957
0.049197732
0.048172646
0.046184281
0.044038314
0.041946502
0.039660278
0.036740412
0.033195857
0.029635048
0.026221203
0.022791476
0.019412124
0.016273857
0.013460707
0.011002872
0.0089089154
0.0071559076
0.0056982517
0.0044878272
0.0034822081
0.0026460385
0.0019502616
0.0013710057
0.00088860417
0.00048680677
0.00015215182
0.045220408
0.045573378
0.046717076
0.048424257
0.049175415
0.048154472
0.046164805
0.044015968
0.041921336
0.039633183
0.036712857
0.033168558
0.029608375
0.026194346
0.022764623
0.019387017
0.016251536
0.013441563
0.010986983
0.0088960962
0.0071457291
0.0056902469
0.0044815948
0.0034774176
0.0026424268
0.0019476161
0.0013691552
0.00088740975
0.00048615454
0.00015194858
0.045201836
0.045553075
0.046690515
0.048395492
0.049153041
0.048136291
0.046145349
0.043993611
0.041896169
0.039606094
0.036685318
0.033141271
0.02958173
0.026167498
0.022737802
0.019361937
0.016229242
0.013422441
0.010971112
0.0088832919
0.0071355623
0.0056822522
0.0044753671
0.0034726302
0.0026388171
0.0019449721
0.0013673057
0.00088621599
0.00048550259
0.00015174544
0.045183319
0.045532832
0.046663983
0.048366708
0.049130617
0.048118088
0.046125888
0.04397124
0.041871002
0.039579009
0.036657788
0.033113995
0.02955509
0.02614066
0.022711003
0.01933688
0.016206981
0.013403349
0.010955276
0.0088705165
0.0071254152
0.0056742731
0.004469153
0.0034678536
0.0026352141
0.0019423333
0.00136546
0.0008850244
0.00048485195
0.00015154271
0.045164856
0.045512647
0.046637499
0.048337867
0.049108132
0.048099882
0.046106412
0.043948859
0.041845836
0.03955193
0.036630274
0.033086739
0.029528453
0.026113845
0.02268422
0.019311857
0.016184753
0.013384291
0.010939471
0.0088577659
0.0071152862
0.005666307
0.0044629491
0.0034630841
0.0026316174
0.0019396982
0.0013636169
0.00088383445
0.00048420233
0.00015134025
0.045146444
0.045492518
0.046611021
0.048309002
0.049085599
0.048081655
0.04608697
0.043926504
0.041820671
0.039524858
0.036602768
0.033059491
0.029501826
0.026087044
0.022657472
0.019286873
0.016162557
0.013365271
0.010923693
0.0088450386
0.0071051772
0.0056583563
0.004456756
0.0034583232
0.0026280266
0.0019370674
0.0013617765
0.00088264633
0.00048355364
0.00015113808
0.045128082
0.045472442
0.046584581
0.048280089
0.049063008
0.04806343
0.046067502
0.043904148
0.04179551
0.039497792
0.036575271
0.033032261
0.029475234
0.026060264
0.022630756
0.019261917
0.016140401
0.013346284
0.010907946
0.0088323363
0.007095091
0.0056504214
0.0044505752
0.0034535709
0.0026244426
0.0019344416
0.0013599393
0.00088146038
0.00048290593
0.0001509362
0.045109768
0.045452418
0.046558163
0.048251142
0.049040368
0.048045185
0.046048065
0.043881782
0.041770351
0.039470735
0.036547796
0.033005043
0.029448649
0.026033503
0.022604062
0.019237
0.016118287
0.013327333
0.01089224
0.0088196677
0.0070850295
0.0056425084
0.00444441
0.0034488307
0.0026208679
0.0019318228
0.0013581072
0.00088027763
0.00048225989
0.0001507349
0.045091499
0.045432444
0.046531791
0.048222169
0.049017675
0.048026948
0.046028624
0.043859407
0.041745197
0.039443685
0.036520335
0.032977853
0.029422072
0.026006764
0.022577399
0.019212123
0.016096205
0.013308423
0.010876566
0.0088070267
0.0070749862
0.005634609
0.004438257
0.0034440998
0.0026172989
0.0019292084
0.0013562783
0.00087909683
0.00048161507
0.00015053395
0.045073274
0.045412513
0.046505443
0.048193141
0.048994931
0.048008691
0.046009185
0.043837053
0.041720052
0.039416651
0.036492891
0.032950674
0.029395514
0.025980048
0.022550777
0.019187281
0.016074165
0.013289554
0.010860926
0.0087944145
0.0070649684
0.0056267293
0.0044321188
0.0034393801
0.002613739
0.0019266001
0.0013544537
0.00087791872
0.00048097181
0.00015033347
0.045055091
0.045392624
0.046479116
0.048164102
0.048972143
0.047990449
0.045989778
0.043814713
0.041694915
0.039389629
0.036465462
0.03292351
0.029368985
0.025953347
0.022524179
0.019162474
0.016052166
0.013270719
0.010845318
0.0087818297
0.0070549749
0.0056188669
0.0044259938
0.0034346707
0.0026101865
0.0019239968
0.0013526325
0.00087674275
0.00048032975
0.00015013334
0.045036948
0.04537278
0.046452817
0.048135014
0.048949301
0.047972194
0.045970353
0.043792367
0.041669783
0.039362623
0.036438043
0.032896363
0.029342465
0.025926676
0.022497605
0.019137709
0.016030206
0.013251921
0.010829751
0.0087692758
0.0070450061
0.0056110251
0.0044198845
0.0034299731
0.0026066434
0.0019214009
0.0013508159
0.00087557013
0.00047968931
0.00014993371
0.045018843
0.045352966
0.046426559
0.048105914
0.04892642
0.047953952
0.04595098
0.043770016
0.041644658
0.039335628
0.036410637
0.032869237
0.029315954
0.025900024
0.022471079
0.019112981
0.01600828
0.013233167
0.010814217
0.0087567513
0.0070350563
0.0056031994
0.0044137866
0.0034252841
0.0026031072
0.00191881
0.0013490033
0.00087439981
0.00047905005
0.00014973448
0.045000774
0.045333193
0.046400348
0.048076775
0.048903488
0.047935709
0.0459316
0.043747685
0.041619541
0.039308644
0.036383256
0.03284213
0.029289467
0.025873393
0.022444577
0.019088288
0.0159864
0.013214452
0.010798719
0.0087442584
0.0070251335
0.0055953936
0.0044077064
0.0034206088
0.0025995798
0.001916226
0.0013471954
0.00087323256
0.0004784125
0.00014953579
0.04498274
0.04531346
0.046374136
0.04804762
0.048880517
0.047917472
0.045912245
0.043725378
0.041594432
0.039281671
0.036355887
0.032815033
0.029263004
0.025846782
0.022418097
0.019063633
0.01596456
0.013195771
0.010783251
0.0087317913
0.0070152323
0.005587605
0.004401638
0.0034159421
0.0025960594
0.0019136465
0.0013453908
0.00087206731
0.00047777617
0.00014933747
0.044964737
0.045293764
0.046347965
0.048018438
0.048857503
0.04789925
0.045892918
0.043703072
0.041569333
0.039254711
0.036328539
0.032787957
0.029236549
0.025820193
0.022391662
0.019039021
0.015942754
0.013177127
0.010767822
0.008719353
0.0070053567
0.0055798346
0.0043955848
0.0034112877
0.0025925483
0.0019110735
0.0013435907
0.00087090494
0.00047714149
0.00014913963
0.044946765
0.045274105
0.046321828
0.047989236
0.048834447
0.047881032
0.04587359
0.043680766
0.041544244
0.039227764
0.036301203
0.032760896
0.029210104
0.025793629
0.022365256
0.019014439
0.015920989
0.013158528
0.010752429
0.0087069453
0.0069955021
0.0055720831
0.0043895448
0.003406643
0.0025890448
0.0019085063
0.0013417943
0.0008697451
0.00047650811
0.00014894219
0.044928821
0.04525448
0.046295739
0.047960019
0.048811358
0.047862834
0.045854322
0.043658479
0.041519166
0.03920083
0.036273879
0.032733859
0.029183685
0.025767078
0.022338873
0.018989898
0.015899266
0.013139966
0.010737071
0.0086945702
0.0069856726
0.0055643517
0.0043835203
0.0034020102
0.0025855507
0.0019059459
0.0013400029
0.00086858843
0.00047587632
0.00014874525
0.044910904
0.045234888
0.046269675
0.047930765
0.048788221
0.047844642
0.045835048
0.043636228
0.0414941
0.039173911
0.036246572
0.032706831
0.029157285
0.025740556
0.022312524
0.018965394
0.015877579
0.013121435
0.01072174
0.0086822178
0.0069758629
0.0055566343
0.0043775082
0.0033973866
0.0025820623
0.0019033903
0.0013382146
0.00086743388
0.00047524556
0.00014854868
0.044893013
0.045215326
0.046243637
0.047901508
0.048765056
0.047826475
0.045815829
0.043613981
0.041469048
0.039147006
0.036219288
0.032679822
0.029130894
0.025714052
0.022286212
0.018940926
0.015855926
0.013102944
0.010706448
0.0086698945
0.0069660791
0.0055489375
0.0043715115
0.0033927752
0.0025785833
0.0019008415
0.0013364314
0.00086628242
0.00047461669
0.00014835267
0.044875146
0.045195793
0.046217626
0.047872225
0.048741849
0.047808316
0.045796625
0.04359174
0.041444009
0.039120125
0.03619202
0.032652827
0.029104512
0.025687567
0.022259922
0.018916492
0.015834317
0.013084495
0.010691191
0.0086576001
0.0069563171
0.0055412566
0.0043655277
0.0033881739
0.0025751122
0.0018982976
0.0013346518
0.00086513324
0.00047398918
0.00014815707
0.044857299
0.045176288
0.046191664
0.047842937
0.048718611
0.047790189
0.045777452
0.043569523
0.041418985
0.039093261
0.036164771
0.032625854
0.029078156
0.025661101
0.022233658
0.018892096
0.015812746
0.01306608
0.010675967
0.0086453372
0.0069465774
0.0055335962
0.0043595585
0.0033835836
0.0025716496
0.0018957602
0.0013328764
0.0008639868
0.00047336319
0.00014796193
0.044839473
0.045156809
0.04616575
0.047813631
0.04869534
0.047772074
0.045758325
0.043547347
0.041393976
0.039066418
0.036137535
0.032598894
0.029051816
0.025634655
0.022207436
0.018867735
0.015791205
0.013047693
0.010660768
0.008633096
0.006936856
0.0055259488
0.0043535991
0.0033790007
0.002568193
0.0018932273
0.0013311038
0.00086284245
0.00047273814
0.00014776708
0.044821664
0.045137352
0.046139845
0.047784312
0.048672031
0.047753988
0.045739206
0.04352518
0.041368984
0.039039593
0.036110312
0.032571946
0.029025484
0.025608231
0.022181236
0.018843406
0.015769703
0.013029349
0.010645607
0.0086208834
0.0069271594
0.0055183213
0.004347657
0.0033744308
0.0025647454
0.0018907013
0.0013293364
0.00086170123
0.00047211469
0.00014757274
0.04480387
0.045117918
0.046113977
0.04775499
0.0486487
0.047735928
0.045720162
0.043503025
0.04134401
0.039012786
0.036083109
0.032545017
0.028999158
0.025581818
0.022155056
0.018819113
0.01574824
0.013011043
0.01063048
0.0086086966
0.0069174845
0.005510709
0.0043417257
0.0033698695
0.0025613038
0.00188818
0.0013275723
0.00086056213
0.00047149245
0.0001473788
0.044786089
0.0450985
0.046088143
0.047725649
0.048625327
0.047717891
0.045701123
0.043480901
0.041319054
0.038985997
0.036055929
0.032518101
0.02897286
0.025555433
0.022128919
0.018794859
0.015726813
0.012992768
0.010615384
0.0085965403
0.0069078317
0.0055031148
0.0043358094
0.0033653201
0.002557872
0.0018856652
0.0013258129
0.00085942603
0.00047087199
0.00014718541
0.044768315
0.045079099
0.046062359
0.04769631
0.048601933
0.047699887
0.045682151
0.043458821
0.041294118
0.038959229
0.036028766
0.032491208
0.028946577
0.025529064
0.022102807
0.018770634
0.015705416
0.012974523
0.010600315
0.0085844073
0.006898196
0.0054955361
0.0043299036
0.0033607784
0.0025544458
0.0018831542
0.0013240563
0.00085829167
0.00047025257
0.00014699231
0.044750552
0.045059716
0.046036619
0.047666949
0.048578504
0.047681906
0.045663203
0.043436756
0.041269209
0.03893248
0.036001625
0.032464324
0.0289203
0.025502711
0.022076716
0.018746445
0.015684061
0.012956322
0.01058528
0.008572302
0.0068885854
0.0054879756
0.0043240121
0.0033562479
0.0025510287
0.0018806502
0.0013223038
0.00085716013
0.00046963461
0.00014679966
0.044732799
0.045040341
0.046010888
0.047637586
0.048555049
0.047663962
0.045644302
0.043414706
0.041244326
0.038905753
0.035974501
0.032437459
0.02889403
0.025476376
0.022050657
0.01872229
0.015662741
0.012938154
0.010570278
0.0085602187
0.006878992
0.0054804286
0.0043181321
0.0033517253
0.002547617
0.0018781503
0.0013205546
0.00085603066
0.00046901764
0.00014660732
0.044715054
0.045020978
0.045985193
0.047608218
0.048531571
0.047646042
0.045625451
0.0433927
0.041219467
0.038879048
0.035947392
0.032410608
0.028867788
0.025450063
0.022024635
0.018698173
0.015641457
0.012920018
0.010555309
0.0085481661
0.0068694242
0.005472901
0.0043122672
0.0033472154
0.0025442145
0.0018756577
0.0013188105
0.0008549046
0.00046840242
0.00014641556
0.044697315
0.045001631
0.045959543
0.047578844
0.048508059
0.047628165
0.045606629
0.043370738
0.041194631
0.038852366
0.035920305
0.032383778
0.02884156
0.02542377
0.021998632
0.018674085
0.015620203
0.012901913
0.010540366
0.0085361386
0.006859873
0.0054653865
0.0043064123
0.0033427127
0.0025408174
0.0018731686
0.001317069
0.00085378001
0.00046778815
0.00014622409
0.044679581
0.044982297
0.045933942
0.047549475
0.048484532
0.04761032
0.04558788
0.043348794
0.04116982
0.038825708
0.035893246
0.032356965
0.02881534
0.025397489
0.021972653
0.018650034
0.015598992
0.012883851
0.010525454
0.0085241371
0.0068503435
0.0054578908
0.004300571
0.0033382205
0.0025374284
0.0018706849
0.0013153313
0.00085265787
0.00046717532
0.00014603305
0.044661849
0.044962975
0.045908379
0.047520089
0.048460966
0.04759251
0.045569146
0.043326871
0.041145035
0.038799079
0.035866208
0.032330165
0.028789126
0.025371232
0.021946719
0.018626021
0.015577817
0.012865821
0.010510577
0.0085121568
0.0068408326
0.0054504083
0.00429474
0.0033337363
0.002534046
0.001868206
0.0013135968
0.00085153779
0.00046656369
0.00014584237
0.044644121
0.044943663
0.045882833
0.04749072
0.048437385
0.047574737
0.045550496
0.043305005
0.041120276
0.038772478
0.035839196
0.032303386
0.028762941
0.025344995
0.021920807
0.01860204
0.015556675
0.012847825
0.010495733
0.0085002076
0.0068313468
0.0054429459
0.0042889258
0.0033292645
0.0025306731
0.0018657345
0.0013118673
0.00085042116
0.00046595381
0.00014565224
0.044626393
0.044924362
0.045857318
0.047461326
0.048413776
0.047556998
0.045531866
0.043283178
0.041095544
0.038745905
0.035812204
0.032276619
0.028736769
0.025318775
0.021894914
0.018578092
0.015535567
0.012829858
0.010480914
0.008488282
0.0068218775
0.0054354947
0.0042831195
0.003324799
0.0025273038
0.0018632659
0.0013101399
0.00084930573
0.00046534445
0.00014546226
0.044608664
0.044905071
0.045831851
0.04743194
0.048390143
0.047539301
0.045513309
0.043261374
0.04107084
0.038719361
0.035785233
0.032249879
0.028710604
0.025292567
0.021869061
0.01855418
0.015514498
0.012811933
0.010466124
0.008476382
0.0068124281
0.00542806
0.0042773263
0.0033203434
0.0025239418
0.0018608028
0.0013084164
0.00084819282
0.00046473638
0.00014527273
0.044590933
0.044885788
0.045806433
0.047402553
0.048366494
0.047521637
0.045494786
0.043239594
0.041046163
0.038692843
0.035758282
0.032223151
0.028684446
0.025266385
0.021843237
0.018530304
0.015493465
0.012794041
0.010451369
0.0084645045
0.0068029981
0.0054206417
0.0042715451
0.0033158973
0.0025205876
0.0018583446
0.0013066967
0.00084708225
0.0004641298
0.00014508365
0.044573199
0.044866512
0.04578105
0.047373156
0.04834281
0.047504019
0.045476319
0.043217886
0.041021515
0.038666352
0.035731365
0.032196442
0.028658313
0.025240222
0.021817434
0.01850646
0.015472465
0.012776182
0.010436648
0.0084526551
0.0067935911
0.0054132411
0.004265778
0.0033114623
0.0025172421
0.0018558927
0.0013049813
0.00084597458
0.00046352494
0.00014489508
0.044555462
0.044847241
0.045755685
0.047343774
0.048319118
0.047486437
0.045457904
0.043196207
0.040996897
0.038639888
0.03570447
0.032169748
0.028632194
0.02521407
0.021791656
0.018482646
0.015451498
0.012758349
0.010421948
0.0084408255
0.0067841988
0.0054058499
0.0042600176
0.003307031
0.0025138995
0.0018534431
0.001303267
0.0008448675
0.00046292039
0.00014470661
0.044537719
0.044827977
0.045730345
0.047314374
0.048295393
0.047468894
0.045439528
0.043174553
0.040972307
0.038613451
0.035677604
0.032143072
0.028606081
0.025187936
0.021765918
0.018458872
0.015430569
0.012740558
0.010407278
0.0084290244
0.0067748278
0.0053984758
0.0042542711
0.0033026112
0.0025105647
0.0018509995
0.0013015569
0.00084376332
0.0004623172
0.00014451855
0.04451997
0.044808718
0.045705055
0.047285003
0.048271654
0.047451393
0.04542122
0.043152939
0.040947747
0.038587042
0.035650763
0.032116419
0.028579975
0.025161823
0.021740201
0.018435129
0.015409675
0.0127228
0.010392641
0.0084172464
0.0067654755
0.0053911171
0.0042485366
0.0032982006
0.0025072367
0.0018485613
0.0012998507
0.00084266166
0.00046171533
0.00014433091
0.044502214
0.044789462
0.04567981
0.047255603
0.048247891
0.047433928
0.045402936
0.04313139
0.040923222
0.038560662
0.035623944
0.032089778
0.028553891
0.025135728
0.021714505
0.018411421
0.015388813
0.012705075
0.010378037
0.0084054929
0.0067561445
0.0053837758
0.004242815
0.0032938001
0.0025039165
0.0018461284
0.0012981486
0.00084156249
0.00046111483
0.00014414374
0.044484449
0.044770204
0.045654601
0.047226216
0.048224098
0.047416514
0.045384735
0.043109869
0.040898737
0.03853431
0.035597149
0.032063159
0.028527821
0.025109641
0.021688847
0.018387743
0.015367986
0.012687374
0.010363455
0.0083937577
0.0067468251
0.0053764418
0.0042370982
0.0032894028
0.0025005987
0.0018436967
0.0012964472
0.00084046374
0.0004605147
0.00014395666
0.044466677
0.044750945
0.045629403
0.047196826
0.048200292
0.047399126
0.045366551
0.043088375
0.040874283
0.038507986
0.035570384
0.032036554
0.028501759
0.02508358
0.021663218
0.018364105
0.015347199
0.012669717
0.010348904
0.0083820528
0.006737531
0.0053691272
0.0042313966
0.0032850169
0.0024972901
0.0018412715
0.0012947503
0.00083936787
0.00045991625
0.00014377007
0.044448895
0.044731688
0.045604228
0.047167422
0.048176455
0.047381766
0.045348449
0.043066941
0.04084986
0.038481691
0.035543651
0.032009973
0.028475702
0.025057537
0.021637611
0.018340498
0.015326445
0.012652093
0.010334383
0.0083703724
0.0067282555
0.0053618272
0.0042257073
0.0032806401
0.0024939881
0.0018388517
0.0012930567
0.00083827426
0.00045931902
0.00014358388
0.044431103
0.044712431
0.0455791
0.047138039
0.048152613
0.047364429
0.045330365
0.043045555
0.040825468
0.038455425
0.035516944
0.03198341
0.028449664
0.025031508
0.021612031
0.018316924
0.015305721
0.0126345
0.010319896
0.0083587133
0.0067189965
0.0053545404
0.0042200278
0.0032762715
0.0024906915
0.0018364363
0.0012913663
0.00083718276
0.00045872278
0.000143398
0.044413301
0.044693166
0.045554016
0.047108629
0.048128742
0.047347114
0.045312358
0.043024194
0.040801107
0.038429187
0.035490266
0.03195686
0.028423642
0.025005491
0.021586487
0.018293385
0.015285034
0.012616931
0.01030543
0.0083470714
0.0067097514
0.0053472639
0.004214355
0.0032719071
0.0024873976
0.0018340227
0.0012896774
0.00083609214
0.00045812687
0.00014321221
0.044395487
0.044673902
0.045528971
0.047079249
0.048104862
0.04732983
0.045294377
0.043002863
0.040776776
0.038402981
0.035463611
0.031930332
0.028397625
0.024979497
0.021560966
0.01826988
0.015264387
0.012599405
0.010290995
0.0083354589
0.0067005291
0.0053400058
0.0042086969
0.0032675547
0.0024841135
0.0018316156
0.0012879931
0.00083500445
0.00045753264
0.00014302698
0.044377663
0.044654636
0.04550393
0.047049829
0.048080966
0.047312565
0.04527646
0.042981609
0.040752477
0.038376803
0.03543698
0.031903816
0.028371613
0.024953522
0.021535466
0.018246409
0.015243769
0.012581912
0.010276587
0.008323871
0.0066913256
0.0053327605
0.0042030478
0.003263209
0.0024808346
0.0018292122
0.0012863115
0.00083391845
0.00045693951
0.00014284209
0.044359825
0.044635371
0.045478912
0.047020426
0.048057051
0.047295326
0.04525858
0.04296038
0.040728208
0.038350656
0.03541037
0.031877324
0.028345616
0.024927558
0.021510006
0.018222968
0.015223183
0.012564447
0.01026221
0.0083123026
0.006682137
0.005325527
0.0041974091
0.0032588697
0.0024775609
0.0018268126
0.0012846323
0.00083283401
0.0004563473
0.00014265746
0.044341977
0.044616106
0.045453934
0.046991025
0.048033132
0.047278107
0.045240753
0.042939176
0.04070397
0.038324536
0.03538379
0.031850848
0.028319641
0.024901614
0.021484572
0.018199566
0.015202634
0.012547009
0.010247859
0.0083007527
0.0066729624
0.0053183037
0.0041917774
0.0032545369
0.0024742908
0.0018244159
0.0012829547
0.00083175069
0.00045575563
0.00014247299
0.044324117
0.044596842
0.045428997
0.046961601
0.048009186
0.04726091
0.045222971
0.04291803
0.040679763
0.038298444
0.035357234
0.031824387
0.028293672
0.024875691
0.021459162
0.018176196
0.015182126
0.012529614
0.01023354
0.0082892326
0.0066638128
0.0053111014
0.0041861616
0.0032502156
0.0024710294
0.0018220261
0.0012812821
0.00083067052
0.00045516552
0.00014228901
0.044306246
0.044577577
0.045404097
0.046932202
0.047985238
0.047243742
0.045205232
0.04289693
0.040655588
0.03827238
0.035330701
0.031797943
0.028267709
0.024849787
0.021433779
0.01815286
0.015161646
0.01251225
0.010219243
0.0082777324
0.0066546765
0.0053039087
0.004180553
0.0032459005
0.0024677723
0.001819639
0.0012796116
0.00082959178
0.00045457608
0.00014210524
0.044288364
0.04455831
0.045379213
0.046902765
0.047961265
0.047226587
0.045187546
0.042875854
0.040631449
0.038246341
0.035304191
0.031771511
0.028241762
0.024823895
0.021408434
0.018129558
0.015141198
0.012494915
0.010204976
0.0082662553
0.0066455588
0.0052967285
0.0041749533
0.0032415921
0.0024645209
0.0018172557
0.001277944
0.00082851475
0.00045398768
0.00014192182
0.044270471
0.044539042
0.04535434
0.046873358
0.047937283
0.047209456
0.045169893
0.04285481
0.04060735
0.03822033
0.035277698
0.031745104
0.028215842
0.024798027
0.021383113
0.018106291
0.015120789
0.012477608
0.01019074
0.0082547987
0.0066364567
0.0052895609
0.0041693636
0.0032372899
0.0024612745
0.0018148754
0.0012762784
0.00082743904
0.00045340015
0.00014173866
0.044252567
0.044519775
0.045329499
0.04684392
0.047913289
0.047192342
0.0451523
0.042833837
0.040583282
0.038194345
0.035251224
0.03171871
0.028189929
0.024772181
0.021357814
0.018083059
0.015100419
0.012460343
0.010176535
0.0082433688
0.0066273768
0.0052824108
0.0041637883
0.0032329991
0.0024580363
0.0018125017
0.0012746169
0.00082636598
0.00045281412
0.00014155595
0.044234652
0.044500507
0.045304698
0.046814488
0.04788927
0.047175247
0.045134734
0.042812887
0.040559243
0.038168387
0.035224768
0.031692332
0.028164024
0.024746349
0.021332553
0.018059857
0.015080076
0.012443108
0.010162351
0.0082319573
0.0066183098
0.0052752704
0.0041582189
0.0032287128
0.0024548007
0.0018101301
0.0012729567
0.00082529384
0.00045222852
0.00014137337
0.044216725
0.044481238
0.045279933
0.046785066
0.047865245
0.047158176
0.045117232
0.042791959
0.040535234
0.038142456
0.035198339
0.03166597
0.028138131
0.024720531
0.021307321
0.018036692
0.015059767
0.012425902
0.010148194
0.0082205695
0.0066092597
0.0052681434
0.0041526601
0.0032244346
0.0024515709
0.0018077632
0.0012713
0.00082422391
0.00045164397
0.00014119112
0.044198786
0.044461967
0.045255203
0.046755605
0.047841186
0.047141114
0.045099749
0.042771096
0.040511255
0.03811655
0.035171931
0.031639619
0.028112265
0.024694739
0.02128211
0.018013559
0.015039497
0.012408726
0.01013407
0.0082092044
0.0066002286
0.0052610288
0.00414711
0.0032201633
0.0024483465
0.0018053995
0.0012696458
0.00082315551
0.00045106015
0.0001410091
0.044180836
0.044442695
0.045230471
0.046726182
0.047817116
0.047124071
0.045082336
0.042750269
0.040487306
0.03809067
0.035145546
0.031613293
0.028086407
0.024668966
0.021256926
0.017990462
0.015019263
0.012391587
0.010119977
0.0081978641
0.0065912175
0.0052539313
0.0041415731
0.0032159015
0.0024451297
0.001803041
0.0012679953
0.00082208945
0.00045047771
0.00014082752
0.044162869
0.044423415
0.045205759
0.04669671
0.047793016
0.047107045
0.04506494
0.042729464
0.040463386
0.038064817
0.035119182
0.031586978
0.028060555
0.024643205
0.021231779
0.017967392
0.014999054
0.012374479
0.010105902
0.008186539
0.0065822171
0.0052468409
0.0041360423
0.0032116431
0.0024419158
0.0018006841
0.0012663459
0.00082102409
0.0004498958
0.00014064611
0.044144891
0.044404136
0.045181089
0.046667267
0.047768891
0.047090029
0.045047614
0.042708708
0.040439495
0.03803899
0.035092836
0.031560681
0.028034715
0.02461746
0.021206654
0.01794436
0.01497888
0.012357401
0.010091856
0.0081752387
0.0065732368
0.0052397664
0.004130523
0.0032073949
0.0024387086
0.001798333
0.0012646999
0.00081996101
0.00044931521
0.00014046509
0.044126904
0.044384857
0.045156457
0.046637812
0.047744744
0.047073032
0.045030305
0.042688005
0.040415635
0.038013189
0.035066508
0.031534398
0.028008899
0.024591737
0.02118155
0.017921358
0.014958745
0.012340352
0.010077839
0.0081639618
0.0065642717
0.0052327042
0.0041250131
0.0032031528
0.0024355057
0.0017959851
0.0012630561
0.00081889932
0.00044873527
0.00014028427
0.044108906
0.044365578
0.045131861
0.046608342
0.047720555
0.047056041
0.045013065
0.042667323
0.040391808
0.037987415
0.0350402
0.031508127
0.027983094
0.024566033
0.021156481
0.017898391
0.014938643
0.012323335
0.010063854
0.0081527083
0.0065553276
0.005225656
0.0041195138
0.0031989196
0.0024323089
0.0017936418
0.0012614157
0.00081783977
0.00044815632
0.00014010375
0.044090898
0.044346288
0.045107289
0.0465789
0.047696347
0.047039061
0.044995841
0.042646675
0.040368026
0.037961668
0.035013916
0.031481882
0.027957297
0.02454034
0.021131441
0.017875453
0.014918566
0.012306352
0.010049888
0.00814147
0.0065463945
0.0052186171
0.00411402
0.0031946902
0.0024291157
0.0017913003
0.0012597768
0.00081678115
0.0004475778
0.00013992336
0.044072881
0.044326997
0.045082721
0.046549409
0.047672092
0.0470221
0.044978686
0.042626097
0.040344275
0.037935952
0.034987658
0.031455649
0.02793151
0.024514668
0.021106423
0.017852551
0.014898528
0.012289401
0.010035952
0.0081302578