/*--------------------------------*- C++ -*----------------------------------*\
| =========                 |                                                 |
| \\      /  F ield         | OpenFOAM: The Open Source CFD Toolbox           |
|  \\    /   O peration     | Version:  v2012                                 |
|   \\  /    A nd           | Website:  www.openfoam.com                      |
|    \\/     M anipulation  |                                                 |
\*---------------------------------------------------------------------------*/
FoamFile
{
    version     2.0;
    format      ascii;
    class       volScalarField;
    location    "800";
    object      nut;
}
// * * * * * * * * * * * * * * * * * * * * * * * * * * * * * * * * * * * * * //

dimensions      [0 2 -1 0 0 0 0];


internalField   nonuniform List<scalar> 
24000
(
2.3277575e-05
9.8011425e-06
8.6731482e-06
1.1374253e-05
1.3157575e-05
1.4520162e-05
1.5009597e-05
1.5001906e-05
1.5651927e-05
1.1962708e-05
7.8659428e-06
6.2676288e-06
6.094042e-06
5.0646269e-06
3.3544149e-06
2.2013079e-06
1.3818612e-06
7.5338113e-07
3.2168578e-07
1.1730238e-07
3.7787664e-08
1.1025444e-08
2.9345428e-09
7.0395102e-10
1.4740647e-10
2.5450754e-11
3.32291e-12
3.4543878e-13
1.1449956e-13
1.234096e-13
2.3327108e-05
9.7075903e-06
8.6377787e-06
1.1316504e-05
1.3111093e-05
1.4483009e-05
1.4980818e-05
1.4977626e-05
1.562062e-05
1.1941743e-05
7.8524768e-06
6.2557732e-06
6.0805589e-06
5.0444211e-06
3.3412358e-06
2.1922884e-06
1.3754999e-06
7.4951637e-07
3.1981599e-07
1.165645e-07
3.753907e-08
1.0951181e-08
2.9145549e-09
6.9913569e-10
1.463972e-10
2.5276271e-11
3.2996942e-12
3.4249308e-13
1.1305395e-13
1.2179952e-13
2.3378213e-05
9.7996033e-06
8.6326952e-06
1.129378e-05
1.3071059e-05
1.4430795e-05
1.4922049e-05
1.490779e-05
1.5540129e-05
1.1918894e-05
7.8374483e-06
6.2432599e-06
6.0665278e-06
5.0270477e-06
3.3290028e-06
2.1837932e-06
1.3694792e-06
7.4492409e-07
3.1749905e-07
1.1562643e-07
3.7219635e-08
1.0855642e-08
2.8888994e-09
6.9296982e-10
1.4510745e-10
2.5054574e-11
3.2715801e-12
3.404689e-13
1.1316456e-13
1.220034e-13
2.3430247e-05
9.8408938e-06
8.608184e-06
1.1261104e-05
1.3032009e-05
1.4386973e-05
1.4877707e-05
1.4860926e-05
1.5484236e-05
1.1895346e-05
7.8221002e-06
6.2308768e-06
6.0527478e-06
5.0080422e-06
3.3164076e-06
2.1755143e-06
1.3639059e-06
7.4116096e-07
3.1571057e-07
1.1493232e-07
3.6989193e-08
1.0787638e-08
2.8707589e-09
6.8862453e-10
1.4420001e-10
2.4898502e-11
3.251486e-12
3.3865254e-13
1.1279724e-13
1.2163284e-13
2.3482932e-05
9.8810574e-06
8.5816475e-06
1.1227823e-05
1.299308e-05
1.4344112e-05
1.4834818e-05
1.4815695e-05
1.5429568e-05
1.1871373e-05
7.806401e-06
6.2184106e-06
6.0389602e-06
4.9896808e-06
3.3040939e-06
2.1673061e-06
1.3582864e-06
7.3723147e-07
3.1381093e-07
1.1418478e-07
3.6738621e-08
1.0713259e-08
2.8508515e-09
6.8384699e-10
1.4320123e-10
2.4726657e-11
3.2294186e-12
3.3673524e-13
1.1248789e-13
1.2133476e-13
2.3536183e-05
9.9148915e-06
8.5540447e-06
1.1193753e-05
1.2954358e-05
1.4302308e-05
1.4793451e-05
1.4772216e-05
1.5377385e-05
1.1847154e-05
7.7905008e-06
6.2059134e-06
6.0252037e-06
4.9713009e-06
3.2917283e-06
2.1590433e-06
1.3526317e-06
7.3329595e-07
3.1191256e-07
1.1343907e-07
3.6488956e-08
1.0639194e-08
2.8310336e-09
6.7909139e-10
1.4220704e-10
2.4555587e-11
3.2074311e-12
3.3480293e-13
1.1215327e-13
1.2100726e-13
2.3589943e-05
9.9459727e-06
8.5264916e-06
1.1159567e-05
1.2915863e-05
1.4261079e-05
1.4752797e-05
1.4729502e-05
1.5326266e-05
1.1822795e-05
7.7744751e-06
6.1933953e-06
6.0114696e-06
4.952969e-06
3.2793567e-06
2.1507555e-06
1.3469549e-06
7.2934159e-07
3.1000492e-07
1.1268967e-07
3.623803e-08
1.0564746e-08
2.8111103e-09
6.7430997e-10
1.4120737e-10
2.4383557e-11
3.185316e-12
3.3285543e-13
1.11812e-13
1.2067243e-13
2.364419e-05
9.9756068e-06
8.4993328e-06
1.1125434e-05
1.2877575e-05
1.4220244e-05
1.4712598e-05
1.4687283e-05
1.5275876e-05
1.1798365e-05
7.7583756e-06
6.1808679e-06
5.9977558e-06
4.9346743e-06
3.2669854e-06
2.1424567e-06
1.3412702e-06
7.2538342e-07
3.0809656e-07
1.1194032e-07
3.5987174e-08
1.0490324e-08
2.7911942e-09
6.6953016e-10
1.40208e-10
2.4211571e-11
3.1632023e-12
3.3090404e-13
1.1146595e-13
1.2033208e-13
2.3698925e-05
1.0004909e-05
8.4727617e-06
1.1091461e-05
1.2839483e-05
1.417969e-05
1.4672707e-05
1.4645408e-05
1.5226003e-05
1.1773912e-05
7.7422372e-06
6.168338e-06
5.9840595e-06
4.9164208e-06
3.2546279e-06
2.1341597e-06
1.3355876e-06
7.2142958e-07
3.0619182e-07
1.1119282e-07
3.5737017e-08
1.041612e-08
2.7713369e-09
6.6476441e-10
1.3921154e-10
2.404008e-11
3.1411494e-12
3.2895491e-13
1.1111717e-13
1.1998841e-13
2.3754158e-05
1.0034563e-05
8.4468761e-06
1.1057689e-05
1.2801581e-05
1.4139367e-05
1.4633045e-05
1.4603793e-05
1.5176501e-05
1.1749465e-05
7.7260827e-06
6.1558101e-06
5.970379e-06
4.8982138e-06
3.2422919e-06
2.125871e-06
1.3299122e-06
7.1748413e-07
3.0429273e-07
1.1044798e-07
3.5487837e-08
1.0342216e-08
2.7515611e-09
6.6001827e-10
1.3821918e-10
2.3869293e-11
3.1191848e-12
3.2701135e-13
1.1076708e-13
1.1964299e-13
2.3809911e-05
1.0064972e-05
8.4217385e-06
1.1024159e-05
1.2763866e-05
1.4099244e-05
1.4593572e-05
1.456239e-05
1.5127349e-05
1.1725045e-05
7.7099277e-06
6.1432871e-06
5.956712e-06
4.8800547e-06
3.2299817e-06
2.1175961e-06
1.3242486e-06
7.1355139e-07
3.0240164e-07
1.0970682e-07
3.5239988e-08
1.0268721e-08
2.7318961e-09
6.5529881e-10
1.372324e-10
2.3699463e-11
3.0973416e-12
3.2507655e-13
1.1041655e-13
1.1929674e-13
2.3866208e-05
1.0096386e-05
8.3973811e-06
1.0990889e-05
1.2726342e-05
1.4059307e-05
1.4554271e-05
1.4521172e-05
1.5078506e-05
1.1700666e-05
7.6937824e-06
6.1307706e-06
5.9430571e-06
4.8619453e-06
3.2177004e-06
2.109338e-06
1.3185988e-06
7.0963291e-07
3.0051928e-07
1.0896959e-07
3.4993552e-08
1.0195658e-08
2.7123481e-09
6.5060747e-10
1.362515e-10
2.3530642e-11
3.0756263e-12
3.2315129e-13
1.1006591e-13
1.1895001e-13
2.3923077e-05
1.0129014e-05
8.3738258e-06
1.0957875e-05
1.2689005e-05
1.4019549e-05
1.4515127e-05
1.4480121e-05
1.5029778e-05
1.1676337e-05
7.6776541e-06
6.1182619e-06
5.9294133e-06
4.8438869e-06
3.2054513e-06
2.1010991e-06
1.3129649e-06
7.057304e-07
2.9864662e-07
1.0823672e-07
3.4748681e-08
1.0123075e-08
2.69293e-09
6.4594745e-10
1.3527713e-10
2.3362944e-11
3.0540543e-12
3.2123736e-13
1.0971593e-13
1.1860366e-13
2.3980547e-05
1.0163007e-05
8.3510854e-06
1.0925115e-05
1.265185e-05
1.3979955e-05
1.4476127e-05
1.4439226e-05
1.4981307e-05
1.1652066e-05
7.6615475e-06
6.1057616e-06
5.9157801e-06
4.8258788e-06
3.1932345e-06
2.0928799e-06
1.3073474e-06
7.0184422e-07
2.9678376e-07
1.0750822e-07
3.4505373e-08
1.005097e-08
2.6736414e-09
6.4131861e-10
1.343093e-10
2.3196369e-11
3.0326256e-12
3.1933489e-13
1.093668e-13
1.182579e-13
2.4038651e-05
1.0198425e-05
8.3291707e-06
1.0892612e-05
1.2614875e-05
1.3940525e-05
1.4437262e-05
1.4398478e-05
1.4933042e-05
1.1627857e-05
7.6454661e-06
6.0932703e-06
5.9021564e-06
4.8079224e-06
3.1810505e-06
2.0846818e-06
1.3017472e-06
6.9797551e-07
2.9493134e-07
1.0678438e-07
3.4263733e-08
9.979375e-09
2.6544909e-09
6.3672307e-10
1.3334843e-10
2.3030992e-11
3.0113498e-12
3.1744476e-13
1.0901866e-13
1.1791287e-13
2.409742e-05
1.023528e-05
8.3080882e-06
1.0860381e-05
1.2578085e-05
1.3901255e-05
1.4398532e-05
1.4357873e-05
1.4884971e-05
1.1603713e-05
7.629412e-06
6.0807885e-06
5.8885417e-06
4.7900153e-06
3.1689003e-06
2.0765046e-06
1.2961641e-06
6.9412389e-07
2.9308909e-07
1.0606506e-07
3.4023707e-08
9.908273e-09
2.6354739e-09
6.321597e-10
1.323943e-10
2.2866775e-11
2.9902223e-12
3.1556663e-13
1.0867153e-13
1.175686e-13
2.4156886e-05
1.0273613e-05
8.2878413e-06
1.0828413e-05
1.2541478e-05
1.3862146e-05
1.435994e-05
1.4317412e-05
1.4837082e-05
1.1579638e-05
7.6133873e-06
6.0683163e-06
5.8749358e-06
4.7721596e-06
3.1567842e-06
2.0683493e-06
1.2905993e-06
6.9029021e-07
2.9125754e-07
1.0535049e-07
3.3785375e-08
9.8376889e-09
2.6165971e-09
6.2763007e-10
1.3144723e-10
2.2703771e-11
2.96925e-12
3.1370138e-13
1.0832582e-13
1.1722557e-13
2.4217081e-05
1.0313496e-05
8.2684358e-06
1.0796698e-05
1.250505e-05
1.3823196e-05
1.4321482e-05
1.4277089e-05
1.4789386e-05
1.1555632e-05
7.5973929e-06
6.0558541e-06
5.8613388e-06
4.7543542e-06
3.1447011e-06
2.0602155e-06
1.2850519e-06
6.8647387e-07
2.8943624e-07
1.0464045e-07
3.3548657e-08
9.7675971e-09
2.5978536e-09
6.2313254e-10
1.3050686e-10
2.2541919e-11
2.9484251e-12
3.1184827e-13
1.079814e-13
1.1688362e-13
2.4278039e-05
1.0354956e-05
8.2498755e-06
1.0765237e-05
1.24688e-05
1.3784398e-05
1.4283152e-05
1.4236911e-05
1.4741903e-05
1.1531697e-05
7.58143e-06
6.0434022e-06
5.8477499e-06
4.7365982e-06
3.1326524e-06
2.0521033e-06
1.2795222e-06
6.8267531e-07
2.8762548e-07
1.0393509e-07
3.3313609e-08
9.6980156e-09
2.5792483e-09
6.1866834e-10
1.2957347e-10
2.2381267e-11
2.9277536e-12
3.1000781e-13
1.0763829e-13
1.1654278e-13
2.4339792e-05
1.0397968e-05
8.2321635e-06
1.0734044e-05
1.243273e-05
1.3745757e-05
1.4244953e-05
1.4196873e-05
1.4694613e-05
1.1507834e-05
7.5654994e-06
6.0309609e-06
5.8341692e-06
4.7188922e-06
3.1206368e-06
2.0440123e-06
1.2740101e-06
6.7889408e-07
2.8582495e-07
1.0323426e-07
3.3080172e-08
9.6289251e-09
2.5607758e-09
6.1423614e-10
1.2864678e-10
2.2221768e-11
2.9072296e-12
3.0817953e-13
1.0729653e-13
1.1620309e-13
2.4402373e-05
1.0442536e-05
8.2152988e-06
1.0703121e-05
1.2396846e-05
1.3707271e-05
1.4206888e-05
1.4156979e-05
1.46475e-05
1.1484043e-05
7.5496015e-06
6.0185305e-06
5.8205972e-06
4.701235e-06
3.1086546e-06
2.0359435e-06
1.2685163e-06
6.7513101e-07
2.8403516e-07
1.0253816e-07
3.284842e-08
9.5603491e-09
2.5424425e-09
6.0983746e-10
1.2772711e-10
2.2063475e-11
2.88686e-12
3.0636423e-13
1.0695639e-13
1.1586487e-13
2.4465815e-05
1.0488729e-05
8.1992838e-06
1.0672447e-05
1.2361139e-05
1.366894e-05
1.4168959e-05
1.4117229e-05
1.460057e-05
1.1460326e-05
7.5337368e-06
6.0061114e-06
5.8070338e-06
4.6836276e-06
3.0967058e-06
2.0278958e-06
1.2630394e-06
6.7138496e-07
2.8225538e-07
1.0184647e-07
3.2618231e-08
9.4922495e-09
2.5242381e-09
6.0546975e-10
1.2681391e-10
2.1906297e-11
2.8666331e-12
3.0456082e-13
1.0661761e-13
1.1552782e-13
2.4530151e-05
1.0536587e-05
8.1841206e-06
1.0642023e-05
1.2325609e-05
1.3630761e-05
1.4131158e-05
1.4077623e-05
1.455383e-05
1.1436681e-05
7.5179059e-06
5.993704e-06
5.7934788e-06
4.6660693e-06
3.0847904e-06
2.0198693e-06
1.2575802e-06
6.6765633e-07
2.8048587e-07
1.0115933e-07
3.2389664e-08
9.4246451e-09
2.5061678e-09
6.0113439e-10
1.2590748e-10
2.1750282e-11
2.8465553e-12
3.0276988e-13
1.0628034e-13
1.1519212e-13
2.4595414e-05
1.0586069e-05
8.1698129e-06
1.0611858e-05
1.2290255e-05
1.3592732e-05
1.4093489e-05
1.4038169e-05
1.4507293e-05
1.141311e-05
7.502109e-06
5.9813088e-06
5.7799327e-06
4.6485593e-06
3.0729073e-06
2.0118638e-06
1.2521383e-06
6.6394495e-07
2.7872649e-07
1.0047664e-07
3.2162675e-08
9.3575204e-09
2.488227e-09
5.9683019e-10
1.2500755e-10
2.1595385e-11
2.8266204e-12
3.0099081e-13
1.0594443e-13
1.1485761e-13
2.4661635e-05
1.0637133e-05
8.1563598e-06
1.0581963e-05
1.2255084e-05
1.3554858e-05
1.4055954e-05
1.399887e-05
1.4460956e-05
1.1389613e-05
7.4863468e-06
5.9689263e-06
5.7663962e-06
4.6310984e-06
3.0610573e-06
2.0038801e-06
1.246714e-06
6.6025119e-07
2.7697749e-07
9.9798511e-08
3.1937306e-08
9.2908898e-09
2.4704198e-09
5.9255819e-10
1.2411437e-10
2.1441646e-11
2.8068337e-12
2.992242e-13
1.0561013e-13
1.1452455e-13
2.4728847e-05
1.0689797e-05
8.1437608e-06
1.0552323e-05
1.2220093e-05
1.3517135e-05
1.4018557e-05
1.3959725e-05
1.4414813e-05
1.136619e-05
7.4706193e-06
5.9565568e-06
5.7528693e-06
4.6136867e-06
3.0492406e-06
1.9959165e-06
1.2413062e-06
6.5657381e-07
2.7523808e-07
9.9124594e-08
3.1713429e-08
9.2247134e-09
2.4527354e-09
5.8831572e-10
1.2322736e-10
2.1288971e-11
2.7871832e-12
2.9746901e-13
1.0527722e-13
1.1419272e-13
2.4797081e-05
1.0744119e-05
8.1320158e-06
1.0522928e-05
1.2185277e-05
1.3479563e-05
1.3981291e-05
1.3920732e-05
1.4368875e-05
1.1342842e-05
7.4549268e-06
5.944201e-06
5.7393522e-06
4.5963247e-06
3.0374564e-06
1.9879741e-06
1.2359157e-06
6.529135e-07
2.7350868e-07
9.845509e-08
3.149112e-08
9.1590149e-09
2.4351803e-09
5.8410437e-10
1.2234687e-10
2.1137416e-11
2.7676762e-12
2.9572591e-13
1.0494586e-13
1.1386231e-13
2.4866368e-05
1.0800106e-05
8.1211234e-06
1.0493787e-05
1.2150638e-05
1.3442137e-05
1.3944156e-05
1.3881895e-05
1.4323151e-05
1.1319568e-05
7.4392698e-06
5.9318596e-06
5.7258458e-06
4.5790104e-06
3.0257041e-06
1.9800525e-06
1.230542e-06
6.4927e-07
2.7178909e-07
9.7789874e-08
3.1270325e-08
9.0937757e-09
2.417749e-09
5.7992275e-10
1.2147257e-10
2.0986925e-11
2.7483053e-12
2.9399413e-13
1.0461581e-13
1.1353304e-13
2.4936741e-05
1.0857719e-05
8.1110782e-06
1.0464909e-05
1.2116178e-05
1.3404862e-05
1.3907158e-05
1.3843219e-05
1.4277642e-05
1.1296369e-05
7.4236487e-06
5.9195333e-06
5.7123509e-06
4.5617457e-06
3.0139857e-06
1.9721521e-06
1.2251855e-06
6.4564355e-07
2.7007948e-07
9.7129032e-08
3.1051079e-08
9.0290082e-09
2.4004452e-09
5.7577181e-10
1.2060469e-10
2.0837536e-11
2.7290753e-12
2.9227423e-13
1.042873e-13
1.1320516e-13
2.5008227e-05
1.0916953e-05
8.101867e-06
1.0436299e-05
1.2081904e-05
1.3367735e-05
1.3870295e-05
1.3804698e-05
1.423234e-05
1.1273246e-05
7.4080638e-06
5.9072223e-06
5.6988675e-06
4.5445317e-06
3.0022998e-06
1.9642717e-06
1.2198452e-06
6.4203311e-07
2.6837916e-07
9.6472249e-08
3.0833267e-08
8.964676e-09
2.3832589e-09
5.7164915e-10
1.1974272e-10
2.0689161e-11
2.7099751e-12
2.9056522e-13
1.0396016e-13
1.1287852e-13
2.5080859e-05
1.0977875e-05
8.0934595e-06
1.040793e-05
1.2047806e-05
1.3330753e-05
1.3833564e-05
1.3766339e-05
1.4187254e-05
1.1250197e-05
7.3925153e-06
5.8949275e-06
5.6853963e-06
4.5273668e-06
2.9906462e-06
1.9564127e-06
1.2145222e-06
6.3843955e-07
2.6668868e-07
9.5819767e-08
3.0616976e-08
8.9008061e-09
2.3661973e-09
5.6755647e-10
1.1888702e-10
2.0541864e-11
2.6910127e-12
2.8886779e-13
1.0363454e-13
1.1255327e-13
2.5154664e-05
1.1040527e-05
8.0857012e-06
1.03798e-05
1.2013883e-05
1.3293914e-05
1.379696e-05
1.3728141e-05
1.4142395e-05
1.1227224e-05
7.3770036e-06
5.8826499e-06
5.6719383e-06
4.510251e-06
2.9790258e-06
1.9485743e-06
1.2092155e-06
6.3486232e-07
2.6500765e-07
9.5171402e-08
3.0402135e-08
8.8373759e-09
2.3492542e-09
5.6349219e-10
1.1803724e-10
2.0395584e-11
2.6721805e-12
2.8718126e-13
1.0331021e-13
1.1222916e-13
2.5229672e-05
1.110486e-05
8.0790528e-06
1.0351926e-05
1.1980138e-05
1.3257217e-05
1.3760488e-05
1.3690105e-05
1.409776e-05
1.1204327e-05
7.3615292e-06
5.8703899e-06
5.6584942e-06
4.4931869e-06
2.9674391e-06
1.9407568e-06
1.2039259e-06
6.3130177e-07
2.6333631e-07
9.4527265e-08
3.0188788e-08
8.7743996e-09
2.3324336e-09
5.5945744e-10
1.1719363e-10
2.0250365e-11
2.6534841e-12
2.8550625e-13
1.0298746e-13
1.1190649e-13
2.530591e-05
1.1170815e-05
8.0732923e-06
1.0324313e-05
1.1946576e-05
1.3220668e-05
1.3724151e-05
1.3652232e-05
1.4053344e-05
1.1181505e-05
7.3460921e-06
5.858148e-06
5.6450644e-06
4.4761741e-06
2.9558848e-06
1.9329599e-06
1.1986524e-06
6.27757e-07
2.6167405e-07
9.3887059e-08
2.9976822e-08
8.7118409e-09
2.3157255e-09
5.5544962e-10
1.1635563e-10
2.0106108e-11
2.6349107e-12
2.8384158e-13
1.0266602e-13
1.1158502e-13
2.5383406e-05
1.1238417e-05
8.0686512e-06
1.0296951e-05
1.1913198e-05
1.3184257e-05
1.3687941e-05
1.3614524e-05
1.4009156e-05
1.115876e-05
7.3306929e-06
5.8459251e-06
5.6316495e-06
4.4592112e-06
2.9443642e-06
1.9251844e-06
1.193396e-06
6.2422876e-07
2.6002133e-07
9.3251004e-08
2.9766319e-08
8.649726e-09
2.299137e-09
5.5147056e-10
1.1552364e-10
1.9962881e-11
2.616469e-12
2.8218798e-13
1.0234601e-13
1.1126485e-13
2.5462185e-05
1.1307739e-05
8.0646816e-06
1.0269817e-05
1.1879994e-05
1.3147985e-05
1.3651856e-05
1.3576982e-05
1.3965207e-05
1.1136091e-05
7.315332e-06
5.833722e-06
5.6182508e-06
4.4422999e-06
2.9328774e-06
1.9174295e-06
1.1881559e-06
6.2071647e-07
2.5837777e-07
9.2618919e-08
2.9557209e-08
8.5880325e-09
2.2826618e-09
5.475187e-10
1.1469733e-10
1.9820628e-11
2.5981515e-12
2.805447e-13
1.0202723e-13
1.1094575e-13
2.5542273e-05
1.1378782e-05
8.0615134e-06
1.0242918e-05
1.1846969e-05
1.3111847e-05
1.3615896e-05
1.3539604e-05
1.3921489e-05
1.11135e-05
7.3000098e-06
5.8215393e-06
5.6048688e-06
4.4254424e-06
2.9214245e-06
1.9096962e-06
1.1829331e-06
6.1722078e-07
2.5674374e-07
9.1990968e-08
2.9349556e-08
8.5267813e-09
2.266306e-09
5.4359548e-10
1.1387699e-10
1.9679403e-11
2.5799656e-12
2.7891256e-13
1.0170994e-13
1.1062803e-13
2.5623695e-05
1.1451456e-05
8.0591709e-06
1.0216266e-05
1.1814125e-05
1.3075848e-05
1.3580065e-05
1.3502394e-05
1.3878001e-05
1.1090986e-05
7.2847263e-06
5.8093773e-06
5.5915041e-06
4.4086366e-06
2.9100051e-06
1.9019842e-06
1.1777266e-06
6.1374075e-07
2.551186e-07
9.1366831e-08
2.9143234e-08
8.4659308e-09
2.2500577e-09
5.3969802e-10
1.1306202e-10
1.9539097e-11
2.5618971e-12
2.7729029e-13
1.0139392e-13
1.1031144e-13
2.5706474e-05
1.1525713e-05
8.0576568e-06
1.0189865e-05
1.1781469e-05
1.3039986e-05
1.3544357e-05
1.346535e-05
1.383475e-05
1.106855e-05
7.269482e-06
5.7972369e-06
5.5781574e-06
4.3918833e-06
2.8986211e-06
1.894294e-06
1.1725373e-06
6.1027709e-07
2.5350283e-07
9.0746746e-08
2.8938334e-08
8.4055111e-09
2.2339254e-09
5.3582841e-10
1.1225286e-10
1.9399786e-11
2.5439561e-12
2.7567885e-13
1.0107939e-13
1.0999625e-13
2.5790632e-05
1.1601623e-05
8.0569738e-06
1.0163691e-05
1.1748998e-05
1.3004252e-05
1.3508764e-05
1.3428472e-05
1.3791741e-05
1.1046193e-05
7.2542773e-06
5.7851187e-06
5.5648296e-06
4.3751844e-06
2.8872715e-06
1.8866249e-06
1.1673646e-06
6.068294e-07
2.5189613e-07
9.0130561e-08
2.8734799e-08
8.3455029e-09
2.2179036e-09
5.3198527e-10
1.1144921e-10
1.926142e-11
2.5261355e-12
2.7407744e-13
1.0076604e-13
1.0968209e-13
2.5876192e-05
1.1679256e-05
8.0571249e-06
1.0137723e-05
1.1716706e-05
1.2968651e-05
1.3473291e-05
1.339176e-05
1.3748969e-05
1.1023916e-05
7.2391126e-06
5.7730231e-06
5.5515213e-06
4.3585407e-06
2.8759569e-06
1.8789786e-06
1.1622097e-06
6.0339836e-07
2.5029886e-07
8.9518443e-08
2.8532689e-08
8.2859262e-09
2.2019981e-09
5.2817005e-10
1.1065138e-10
1.9124053e-11
2.5084424e-12
2.7248671e-13
1.0045408e-13
1.0936919e-13
2.5963174e-05
1.1758561e-05
8.0581156e-06
1.0111982e-05
1.1684598e-05
1.2933176e-05
1.3437934e-05
1.3355211e-05
1.3706428e-05
1.100172e-05
7.223988e-06
5.7609504e-06
5.5382331e-06
4.3419504e-06
2.8646779e-06
1.871354e-06
1.1570712e-06
5.9998276e-07
2.4871026e-07
8.8910011e-08
2.8331861e-08
8.2267346e-09
2.1861956e-09
5.2437944e-10
1.0985868e-10
1.8987562e-11
2.490861e-12
2.7090534e-13
1.001433e-13
1.0905735e-13
2.6051598e-05
1.183943e-05
8.0599439e-06
1.0086475e-05
1.1652679e-05
1.289783e-05
1.340269e-05
1.3318828e-05
1.3664127e-05
1.0979605e-05
7.2089039e-06
5.7489013e-06
5.5249655e-06
4.3254165e-06
2.8534353e-06
1.863752e-06
1.1519503e-06
5.9658354e-07
2.4713093e-07
8.8305563e-08
2.8132426e-08
8.167964e-09
2.1705065e-09
5.2061604e-10
1.0907165e-10
1.8852047e-11
2.4734045e-12
2.6933461e-13
9.9834049e-14
1.0874695e-13
2.6141481e-05
1.1921819e-05
8.0626032e-06
1.0061202e-05
1.1620954e-05
1.2862609e-05
1.3367554e-05
1.328261e-05
1.3622067e-05
1.0957572e-05
7.1938603e-06
5.736876e-06
5.5117193e-06
4.3089392e-06
2.8422282e-06
1.8561724e-06
1.1468466e-06
5.9320048e-07
2.4556065e-07
8.7704972e-08
2.7934333e-08
8.1095967e-09
2.1549254e-09
5.1687847e-10
1.0828999e-10
1.871745e-11
2.456065e-12
2.6777362e-13
9.9525909e-14
1.0843751e-13
2.6232841e-05
1.2005798e-05
8.066091e-06
1.0036132e-05
1.1589421e-05
1.2827511e-05
1.3332526e-05
1.3246555e-05
1.3580243e-05
1.0935623e-05
7.1788576e-06
5.7248748e-06
5.4984951e-06
4.2925182e-06
2.831058e-06
1.8486165e-06
1.1417611e-06
5.8983409e-07
2.4399969e-07
8.7108362e-08
2.7737629e-08
8.0516485e-09
2.139457e-09
5.131679e-10
1.0751396e-10
1.8583816e-11
2.4388487e-12
2.6622294e-13
9.9219081e-14
1.0812925e-13
2.6325694e-05
1.2091432e-05
8.0704057e-06
1.0011248e-05
1.1558078e-05
1.2792536e-05
1.3297604e-05
1.3210661e-05
1.3538649e-05
1.0913758e-05
7.1638957e-06
5.7128977e-06
5.4852932e-06
4.2761541e-06
2.8199253e-06
1.8410834e-06
1.1366925e-06
5.8648323e-07
2.4244732e-07
8.6515381e-08
2.7542181e-08
7.9940768e-09
2.1240893e-09
5.094814e-10
1.0674292e-10
1.8451036e-11
2.421741e-12
2.6468142e-13
9.8913464e-14
1.078221e-13
2.6420056e-05
1.2178662e-05
8.07555e-06
9.9865652e-06
1.152693e-05
1.2757678e-05
1.3262779e-05
1.317493e-05
1.3497291e-05
1.0891979e-05
7.1489749e-06
5.7009449e-06
5.4721138e-06
4.2598494e-06
2.8088304e-06
1.833574e-06
1.1316424e-06
5.8314906e-07
2.4090427e-07
8.5926379e-08
2.7348118e-08
7.9369229e-09
2.1088338e-09
5.0582178e-10
1.059775e-10
1.8319218e-11
2.4047562e-12
2.6315032e-13
9.8609334e-14
1.0751633e-13
2.6515939e-05
1.2267369e-05
8.081518e-06
9.9620884e-06
1.1495987e-05
1.2722942e-05
1.3228052e-05
1.3139361e-05
1.3456171e-05
1.0870288e-05
7.1340951e-06
5.6890162e-06
5.458958e-06
4.2436034e-06
2.7977723e-06
1.8260884e-06
1.1266101e-06
5.7983126e-07
2.3937027e-07
8.5341192e-08
2.7155375e-08
7.8801643e-09
2.0936841e-09
5.0218742e-10
1.0521732e-10
1.8188299e-11
2.3878856e-12
2.6162858e-13
9.830618e-14
1.0721138e-13
2.6613357e-05
1.2357505e-05
8.0883061e-06
9.9378099e-06
1.1465255e-05
1.2688324e-05
1.3193423e-05
1.3103953e-05
1.341528e-05
1.0848686e-05
7.1192565e-06
5.6771114e-06
5.4458262e-06
4.2274161e-06
2.7867537e-06
1.8186276e-06
1.1215965e-06
5.7653012e-07
2.3784546e-07
8.4759905e-08
2.6963987e-08
7.8238142e-09
2.078644e-09
4.9857933e-10
1.0446261e-10
1.8058316e-11
2.3711348e-12
2.6011693e-13
9.8004333e-14
1.0690761e-13
2.6712321e-05
1.2449141e-05
8.0959126e-06
9.9136926e-06
1.143473e-05
1.2653824e-05
1.3158884e-05
1.3068702e-05
1.3374615e-05
1.0827175e-05
7.1044585e-06
5.66523e-06
5.4327189e-06
4.211289e-06
2.7757738e-06
1.8111904e-06
1.1166005e-06
5.7324465e-07
2.363292e-07
8.4182204e-08
2.6773836e-08
7.7678337e-09
2.0637027e-09
4.9499481e-10
1.037128e-10
1.7929171e-11
2.354491e-12
2.5861439e-13
9.7703767e-14
1.0660502e-13
2.6812841e-05
1.2542339e-05
8.1043355e-06
9.8897196e-06
1.1404414e-05
1.2619438e-05
1.312443e-05
1.3033607e-05
1.333418e-05
1.0805756e-05
7.089701e-06
5.6533714e-06
5.4196361e-06
4.1952224e-06
2.7648328e-06
1.8037785e-06
1.1116237e-06
5.6997616e-07
2.3482231e-07
8.3608458e-08
2.6585055e-08
7.7122654e-09
2.048872e-09
4.9143681e-10
1.029685e-10
1.780097e-11
2.3379678e-12
2.5712207e-13
9.7404604e-14
1.0630372e-13
2.6914927e-05
1.263703e-05
8.1135734e-06
9.8658952e-06
1.1374315e-05
1.2585169e-05
1.309006e-05
1.299867e-05
1.3293973e-05
1.0784433e-05
7.0749838e-06
5.6415348e-06
5.4065782e-06
4.1792145e-06
2.7539306e-06
1.7963914e-06
1.1066652e-06
5.667241e-07
2.3332437e-07
8.3038466e-08
2.6397566e-08
7.6570831e-09
2.0341444e-09
4.8790337e-10
1.0222932e-10
1.7673642e-11
2.3215553e-12
2.5563875e-13
9.710631e-14
1.0600309e-13
2.7018585e-05
1.2733089e-05
8.1236134e-06
9.8422224e-06
1.1344449e-05
1.2551024e-05
1.3055779e-05
1.2963885e-05
1.3253987e-05
1.0763208e-05
7.0603068e-06
5.6297187e-06
5.3935452e-06
4.1632666e-06
2.7430693e-06
1.78903e-06
1.101726e-06
5.6348883e-07
2.3183557e-07
8.2472326e-08
2.6211412e-08
7.6023023e-09
2.0195245e-09
4.8439576e-10
1.0149551e-10
1.7547236e-11
2.3052607e-12
2.5416536e-13
9.6809338e-14
1.0570366e-13
2.7123824e-05
1.2830477e-05
8.1344489e-06
9.8186932e-06
1.1314821e-05
1.2516994e-05
1.3021582e-05
1.2929248e-05
1.3214218e-05
1.0742083e-05
7.0456697e-06
5.6179218e-06
5.3805365e-06
4.1473811e-06
2.7322481e-06
1.7816938e-06
1.0968055e-06
5.6026968e-07
2.3035547e-07
8.1909808e-08
2.6026502e-08
7.5478931e-09
2.0050039e-09
4.8091182e-10
1.0076663e-10
1.7421673e-11
2.2890736e-12
2.5270109e-13
9.6513647e-14
1.0540538e-13
2.7230648e-05
1.2929283e-05
8.1460764e-06
9.795285e-06
1.1285414e-05
1.2483061e-05
1.2987473e-05
1.2894758e-05
1.3174667e-05
1.0721062e-05
7.0310722e-06
5.6061424e-06
5.367552e-06
4.1315573e-06
2.721467e-06
1.774384e-06
1.0919047e-06
5.5706774e-07
2.2888475e-07
8.135122e-08
2.5842949e-08
7.493891e-09
1.9905924e-09
4.7745403e-10
1.0004318e-10
1.7297042e-11
2.2730059e-12
2.5124693e-13
9.621929e-14
1.0510828e-13
2.7339061e-05
1.3029593e-05
8.1585031e-06
9.7720167e-06
1.1256218e-05
1.2449205e-05
1.2953456e-05
1.286042e-05
1.3135331e-05
1.0700148e-05
7.0165142e-06
5.5943785e-06
5.3545916e-06
4.1157933e-06
2.7107269e-06
1.7671e-06
1.0870228e-06
5.5388229e-07
2.2742289e-07
8.079632e-08
2.566066e-08
7.4402664e-09
1.9762818e-09
4.7402032e-10
9.932474e-11
1.7173268e-11
2.2570473e-12
2.4980172e-13
9.5925808e-14
1.0481184e-13
2.7449067e-05
1.3131361e-05
8.1717339e-06
9.7489045e-06
1.1227166e-05
1.2415445e-05
1.2919561e-05
1.2826228e-05
1.30962e-05
1.0679345e-05
7.0019956e-06
5.5826274e-06
5.3416549e-06
4.1000925e-06
2.7000288e-06
1.7598427e-06
1.082161e-06
5.5071386e-07
2.2597021e-07
8.0245258e-08
2.5479695e-08
7.3870391e-09
1.9620777e-09
4.7061211e-10
9.8611616e-11
1.7050404e-11
2.2412052e-12
2.4836644e-13
9.5633729e-14
1.0451664e-13
2.7560668e-05
1.3234452e-05
8.1857622e-06
9.7259393e-06
1.1198262e-05
1.2381798e-05
1.2885783e-05
1.279218e-05
1.3057271e-05
1.0658657e-05
6.987516e-06
5.5708858e-06
5.3287416e-06
4.0844555e-06
2.6893718e-06
1.752612e-06
1.0773186e-06
5.4756195e-07
2.2452634e-07
7.9697843e-08
2.5299978e-08
7.3341841e-09
1.947973e-09
4.6722762e-10
9.7903421e-11
1.6928384e-11
2.2254707e-12
2.4694027e-13
9.5342902e-14
1.0422253e-13
2.7673866e-05
1.3338783e-05
8.2005885e-06
9.7031033e-06
1.1169511e-05
1.2348268e-05
1.2852121e-05
1.2758276e-05
1.3018546e-05
1.0638089e-05
6.9730758e-06
5.5591505e-06
5.3158513e-06
4.068881e-06
2.6787566e-06
1.7454084e-06
1.0724963e-06
5.4442731e-07
2.2309177e-07
7.9154296e-08
2.5121592e-08
7.281728e-09
1.9339751e-09
4.6386872e-10
9.7200562e-11
1.680728e-11
2.2098533e-12
2.455239e-13
9.5053286e-14
1.0392939e-13
2.7788659e-05
1.3444381e-05
8.2162094e-06
9.6803621e-06
1.1140912e-05
1.2314859e-05
1.2818579e-05
1.2724513e-05
1.2980017e-05
1.0617645e-05
6.9586756e-06
5.5474171e-06
5.302984e-06
4.0533683e-06
2.6681835e-06
1.7382314e-06
1.0676936e-06
5.4130923e-07
2.2166601e-07
7.8614394e-08
2.4944454e-08
7.2296441e-09
1.9200767e-09
4.6053359e-10
9.6502652e-11
1.6687025e-11
2.1943445e-12
2.4411655e-13
9.4764639e-14
1.0363696e-13
2.7905045e-05
1.3551337e-05
8.2326332e-06
9.6576972e-06
1.1112458e-05
1.2281568e-05
1.2785152e-05
1.2690888e-05
1.2941679e-05
1.0597331e-05
6.9443161e-06
5.5356802e-06
5.2901398e-06
4.0379212e-06
2.6576532e-06
1.7310823e-06
1.0629116e-06
5.3820847e-07
2.2024948e-07
7.8078329e-08
2.4768635e-08
7.1779557e-09
1.9062845e-09
4.5722396e-10
9.581006e-11
1.6567684e-11
2.1789533e-12
2.4271936e-13
9.4477492e-14
1.0334581e-13
2.8023023e-05
1.3659649e-05
8.2498639e-06
9.6351122e-06
1.1084147e-05
1.2248398e-05
1.2751837e-05
1.26574e-05
1.290353e-05
1.0577154e-05
6.9299987e-06
5.5239335e-06
5.2773191e-06
4.0225384e-06
2.6471644e-06
1.7239604e-06
1.0581495e-06
5.3512445e-07
2.1884183e-07
7.7545917e-08
2.4594062e-08
7.1266386e-09
1.8925914e-09
4.5393799e-10
9.5122396e-11
1.6449188e-11
2.1636705e-12
2.4133141e-13
9.4191574e-14
1.0305562e-13
2.8142589e-05
1.376921e-05
8.2679067e-06
9.6126289e-06
1.1055985e-05
1.2215351e-05
1.271864e-05
1.2624048e-05
1.286557e-05
1.055712e-05
6.9157258e-06
5.5121694e-06
5.2645226e-06
4.0072183e-06
2.6367186e-06
1.7168661e-06
1.0534077e-06
5.3205761e-07
2.1744333e-07
7.7017299e-08
2.4420793e-08
7.075712e-09
1.879003e-09
4.5067713e-10
9.4439972e-11
1.6331592e-11
2.1485031e-12
2.3995321e-13
9.3906877e-14
1.0276633e-13
2.8263738e-05
1.3879937e-05
8.286768e-06
9.5902468e-06
1.1027974e-05
1.2182432e-05
1.2685563e-05
1.2590833e-05
1.2827789e-05
1.0537235e-05
6.9015005e-06
5.5003788e-06
5.251752e-06
3.9919611e-06
2.6263148e-06
1.7097987e-06
1.0486859e-06
5.2900739e-07
2.1605361e-07
7.6492297e-08
2.424876e-08
7.0251549e-09
1.8655135e-09
4.4743993e-10
9.3762489e-11
1.6214846e-11
2.1334448e-12
2.3858419e-13
9.3623281e-14
1.024778e-13
2.8386465e-05
1.3991857e-05
8.3064492e-06
9.56795e-06
1.1000109e-05
1.2149639e-05
1.2652599e-05
1.2557751e-05
1.2790186e-05
1.0517455e-05
6.8873204e-06
5.4885893e-06
5.2390103e-06
3.9767683e-06
2.6159536e-06
1.7027598e-06
1.0439852e-06
5.2597466e-07
2.1467316e-07
7.5971129e-08
2.4078042e-08
6.9749921e-09
1.8521299e-09
4.4422817e-10
9.3090329e-11
1.6099019e-11
2.1185047e-12
2.3722541e-13
9.3341229e-14
1.0219048e-13
2.8510763e-05
1.41051e-05
8.3269684e-06
9.5457217e-06
1.0972377e-05
1.2116969e-05
1.2619747e-05
1.25248e-05
1.275276e-05
1.0497735e-05
6.8731808e-06
5.4768307e-06
5.226299e-06
3.9616372e-06
2.6056338e-06
1.6957481e-06
1.0393044e-06
5.2295853e-07
2.1330143e-07
7.5453541e-08
2.3908545e-08
6.9251929e-09
1.8388435e-09
4.4103972e-10
9.2423029e-11
1.5984028e-11
2.1036724e-12
2.3587588e-13
9.3060403e-14
1.01904e-13
2.8636625e-05
1.4219714e-05
8.3483356e-06
9.5235693e-06
1.0944775e-05
1.2084428e-05
1.258701e-05
1.2491979e-05
1.2715503e-05
1.0478072e-05
6.8590811e-06
5.4651039e-06
5.2136176e-06
3.946566e-06
2.5953561e-06
1.6887639e-06
1.034644e-06
5.1995939e-07
2.1193872e-07
7.4939674e-08
2.3740323e-08
6.8757759e-09
1.8256599e-09
4.3787596e-10
9.1760902e-11
1.586993e-11
2.0889559e-12
2.3453638e-13
9.2780982e-14
1.0161849e-13
2.8764043e-05
1.4335576e-05
8.3705667e-06
9.5015266e-06
1.0917299e-05
1.2052011e-05
1.2554388e-05
1.2459286e-05
1.2678414e-05
1.0458467e-05
6.8450206e-06
5.4534082e-06
5.2009656e-06
3.9315557e-06
2.5851196e-06
1.6818067e-06
1.0300037e-06
5.1697691e-07
2.1058475e-07
7.4429397e-08
2.3573329e-08
6.8267258e-09
1.8125745e-09
4.3473579e-10
9.1103708e-11
1.5756684e-11
2.0743494e-12
2.3320641e-13
9.2502861e-14
1.0133383e-13
2.8893009e-05
1.4452538e-05
8.3936687e-06
9.479613e-06
1.0889952e-05
1.2019721e-05
1.2521877e-05
1.2426723e-05
1.2641493e-05
1.0438917e-05
6.8309986e-06
5.4417431e-06
5.1883427e-06
3.9166067e-06
2.5749245e-06
1.6748779e-06
1.0253845e-06
5.1401189e-07
2.0924001e-07
7.3922924e-08
2.3407638e-08
6.7780671e-09
1.7995944e-09
4.3162093e-10
9.0451825e-11
1.5644354e-11
2.0598615e-12
2.3188684e-13
9.2226341e-14
1.010503e-13
2.9023512e-05
1.457057e-05
8.4176456e-06
9.4578285e-06
1.0862731e-05
1.1987555e-05
1.2489478e-05
1.2394285e-05
1.2604736e-05
1.0419423e-05
6.8170142e-06
5.4301076e-06
5.1757482e-06
3.9017166e-06
2.5647703e-06
1.6679758e-06
1.0207849e-06
5.1106315e-07
2.0790377e-07
7.3419938e-08
2.3243136e-08
6.7297628e-09
1.7867093e-09
4.2852886e-10
8.9804716e-11
1.5532851e-11
2.0454806e-12
2.3057648e-13