/*--------------------------------*- C++ -*----------------------------------*\
| =========                 |                                                 |
| \\      /  F ield         | OpenFOAM: The Open Source CFD Toolbox           |
|  \\    /   O peration     | Version:  v2012                                 |
|   \\  /    A nd           | Website:  www.openfoam.com                      |
|    \\/     M anipulation  |                                                 |
\*---------------------------------------------------------------------------*/
FoamFile
{
    version     2.0;
    format      ascii;
    class       volScalarField;
    location    "800";
    object      omega;
}
// * * * * * * * * * * * * * * * * * * * * * * * * * * * * * * * * * * * * * //

dimensions      [0 0 -1 0 0 0 0];


internalField   nonuniform List<scalar> 
24000
(
4611.1326
13121.64
35218.951
65104.82
94051.114
120339.48
140101.36
149557.58
150220.28
164149.13
242959.01
441217.84
679165.86
1011824.1
1447314.7
1928779.3
2465743.9
3157511.6
4204203.6
5939366.9
8904998.4
14035191
23083647
39633270
71703395
1.3944867e+08
3.0229325e+08
7.8132828e+08
2.7582382e+09
1.7950397e+10
4602.0301
13057.635
35041.847
64911.534
93877.834
120197.47
140012.2
149532.77
150220.01
164090.08
242787.6
440928.21
678994.19
1011980.1
1447593
1929026.8
2466118.6
3158320
4205834.6
5942348.2
8910160.1
14043972
23098648
39659420
71750821
1.3954056e+08
3.024913e+08
7.8183722e+08
2.7600261e+09
1.7961989e+10
4593.2861
12993.593
34866.671
64728.919
93725.511
120091.27
139966.55
149547.8
150241.06
164053.48
242667.19
440760.46
678954.57
1012258.3
1447886.8
1929023.2
2465887.8
3158324.5
4206844.6
5945298.3
8916094.3
14054298
23115833
39688378
71802017
1.3963832e+08
3.0270061e+08
7.8237386e+08
2.7619103e+09
1.7974206e+10
4584.691
12929.997
34692.608
64547.296
93573.297
119983.85
139916.06
149553.15
150253.93
164011.54
242554.03
440611.28
678918.18
1012489.1
1448019.3
1928725.1
2465244.3
3157735.1
4206897
5946695.1
8919699.7
14061391
23128659
39711250
71843906
1.3971988e+08
3.0287685e+08
7.8282736e+08
2.7635043e+09
1.7984543e+10
4576.3232
12866.954
34519.003
64365.536
93420.714
119876.41
139865.1
149557.26
150265.75
163970.77
242450.97
440490.01
678915.72
1012761.1
1448198.6
1928487.9
2464692.3
3157298.1
4207213.3
5948530.2
8923976.8
14069448
23142834
39736077
71888873
1.3980689e+08
3.030643e+08
7.8330912e+08
2.765197e+09
1.7995518e+10
4568.2118
12804.59
34345.914
64183.551
93267.719
119768.76
139813.69
149560.44
150276.53
163930.1
242353.78
440386.72
678937.22
1013065.7
1448415.8
1928287.6
2464169.5
3156878.4
4207533.6
5950358
8928243
14077505
23157050
39761032
71934135
1.3989454e+08
3.0325321e+08
7.837947e+08
2.7669029e+09
1.800658e+10
4560.378
12742.955
34173.325
64001.234
93114.271
119660.9
139762.09
149563.17
150286.83
163889.65
242260.76
440296.35
678976.68
1013395.4
1448663.1
1928117.6
2463674.1
3156484.9
4207884.7
5952229.6
8932576.3
14085668
23171434
39786262
71979882
1.3998312e+08
3.0344409e+08
7.842853e+08
2.7686266e+09
1.8017757e+10
4552.8333
12682.076
34001.241
63818.54
92960.349
119552.81
139710.34
149565.61
150296.83
163849.31
242170.42
440214.56
679028.24
1013742.1
1448929.7
1927966.5
2463195.1
3156106.1
4208252
5954123.1
8936942.9
14093884
23185904
39811638
72025887
1.4007219e+08
3.0363604e+08
7.8477866e+08
2.77036e+09
1.8028998e+10
4545.5836
12621.963
33829.668
63635.446
92805.942
119444.45
139658.47
149567.83
150306.62
163809.02
242081.75
440138.33
679087.71
1014099.7
1449208.2
1927826.7
2462725.8
3155736.3
4208629.2
5956029.6
8941328.4
14102128
23200420
39837093
72072034
1.4016154e+08
3.0382858e+08
7.8527354e+08
2.7720989e+09
1.8040273e+10
4538.631
12562.618
33658.616
63451.94
92651.039
119335.78
139606.44
149569.87
150316.28
163768.73
241994.08
440065.6
679152.29
1014464.2
1449494
1927693.8
2462263
3155373.1
4209014.6
5957946.9
8945728.2
14110393
23214968
39862597
72118264
1.4025104e+08
3.0402144e+08
7.8576924e+08
2.7738406e+09
1.8051566e+10
4531.9756
12504.039
33488.094
63268.016
92495.633
119226.78
139554.26
149571.74
150325.82
163728.42
241906.93
439994.97
679220
1014832.7
1449783.2
1927563.9
2461803.2
3155013.6
4209404.5
5959868.9
8950132.9
14118664
23229523
39888113
72164516
1.4034058e+08
3.0421438e+08
7.8626516e+08
2.7755829e+09
1.8062863e+10
4525.6161
12446.223
33318.114
63083.675
92339.721
119117.42
139501.9
149573.42
150335.26
163688.04
241820
439925.47
679289.5
1015203.5
1450073.6
1927435
2461345.1
3154656.9
4209798.4
5961795.5
8954542.1
14126938
23244081
39913632
72210771
1.4043012e+08
3.0440733e+08
7.8676108e+08
2.7773251e+09
1.8074161e+10
4519.5502
12389.163
33148.688
62898.92
92183.3
119007.7
139449.35
149574.91
150344.62
163647.57
241733.05
439856.42
679359.83
1015575
1450363.7
1927305.5
2460887
3154301.3
4210194.1
5963723.4
8958950.5
14135208
23258629
39939133
72256995
1.4051961e+08
3.0460017e+08
7.872567e+08
2.7790664e+09
1.8085452e+10
4513.775
12332.852
32979.83
62713.758
92026.371
118897.59
139396.59
149576.2
150353.85
163606.99
241645.93
439787.39
679430.45
1015946.5
1450652.4
1927174.5
2460428.5
3153946.8
4210592.2
5965653.6
8963359
14143475
23273168
39964615
72303179
1.4060902e+08
3.0479284e+08
7.8775189e+08
2.7808064e+09
1.8096735e+10
4508.2868
12277.284
32811.555
62528.193
91868.932
118787.08
139343.61
149577.27
150362.96
163566.28
241558.53
439718.05
679500.85
1016317.3
1450938.8
1927041.1
2459968.6
3153592.5
4210991.2
5967583.2
8967763.4
14151731
23287689
39990063
72349301
1.4069831e+08
3.0498524e+08
7.8824643e+08
2.782544e+09
1.8108002e+10
4503.082
12222.449
32643.875
62342.235
91710.983
118676.17
139290.38
149578.08
150371.92
163525.43
241470.76
439648.13
679570.67
1016687
1451222.6
1926905.1
2459507.5
3153238.8
4211391.8
5969513.8
8972166
14159981
23302193
40015480
72395366
1.4078748e+08
3.0517738e+08
7.8874027e+08
2.784279e+09
1.8119252e+10
4498.1565
12168.34
32476.804
62155.891
91552.526
118564.84
139236.91
149578.63
150380.71
163484.41
241382.58
439577.48
679639.68
1017055.1
1451503.2
1926765.6
2459044.1
3152884.3
4211792.4
5971443
8976563.4
14168218
23316676
40040858
72441361
1.4087651e+08
3.0536924e+08
7.8923338e+08
2.7860113e+09
1.8130484e+10
4493.506
12114.948
32310.356
61969.173
91393.563
118453.09
139183.17
149578.9
150389.33
163443.21
241293.94
439506.01
679707.8
1017421.6
1451780.4
1926622.7
2458578.8
3152529.9
4212194.2
5973372.7
8980957.9
14176448
23331140
40066203
72487293
1.4096543e+08
3.0556083e+08
7.897258e+08
2.7877414e+09
1.8141703e+10
4489.1259
12062.262
32144.543
61782.087
91234.095
118340.92
139129.16
149578.86
150397.73
163401.82
241204.82
439433.61
679774.82
1017786.1
1452053.9
1926476.2
2458111.3
3152175
4212596.3
5975300.9
8985346.5
14184664
23345580
40091504
72533145
1.4105419e+08
3.0575211e+08
7.9021741e+08
2.7894687e+09
1.8152904e+10
4485.0113
12010.273
31979.379
61594.645
91074.123
118228.32
139074.87
149578.49
150405.91
163360.22
241115.17
439360.21
679840.63
1018148.6
1452323.8
1926326
2457641.6
3151819.9
4212999.2
5977229
8989731.6
14192870
23360000
40116766
72578924
1.4114281e+08
3.0594306e+08
7.9070822e+08
2.7911933e+09
1.8164086e+10
4481.1574
11958.971
31814.872
61406.855
90913.652
118115.29
139020.29
149577.78
150413.85
163318.4
241025
439285.76
679905.21
1018508.9
1452589.5
1926171.5
2457168.8
3151463.3
4213401.1
5979154.5
8994109.6
14201061
23374393
40141981
72624616
1.4123126e+08
3.0613365e+08
7.9119808e+08
2.7929144e+09
1.8175245e+10
4477.5588
11908.344
31651.035
61218.728
90752.683
118001.82
138965.41
149576.69
150421.52
163276.33
240934.29
439210.24
679968.51
1018867
1452851.4
1926013.3
2456694.1
3151106.7
4213804.3
5981080.1
8998484.3
14209243
23388766
40167158
72670239
1.4131957e+08
3.0632393e+08
7.9168714e+08
2.7946325e+09
1.8186386e+10
4474.2102
11858.38
31487.877
61030.275
90591.219
117887.92
138910.23
149575.23
150428.91
163234.02
240843.04
439133.62
680030.44
1019222.9
1453109.4
1925851.1
2456216.6
3150749.2
4214207.3
5983004
9002852.5
14217411
23403113
40192290
72715780
1.4140772e+08
3.0651389e+08
7.9217534e+08
2.7963476e+09
1.8197508e+10
4471.106
11809.068
31325.408
60841.502
90429.262
117773.57
138854.74
149573.36
150435.99
163191.45
240751.25
439055.91
680091.02
1019576.3
1453363.1
1925684.7
2455736.7
3150391.1
4214610.7
5984927
9007216.3
14225568
23417439
40217382
72761247
1.4149574e+08
3.0670354e+08
7.9266276e+08
2.7980602e+09
1.8208613e+10
4468.2403
11760.395
31163.635
60652.421
90266.816
117658.79
138798.94
149571.07
150442.74
163148.6
240658.91
438977.1
680150.24
1019927.4
1453612.6
1925514
2455253.7
3150031.6
4215012.9
5986847.2
9011572.6
14233710
23431737
40242424
72806624
1.4158357e+08
3.0689282e+08
7.9314927e+08
2.7997697e+09
1.8219698e+10
4465.6073
11712.347
31002.564
60463.041
90103.886
117543.56
138742.82
149568.35
150449.14
163105.48
240566.03
438897.19
680208.1
1020276.2
1453858.2
1925339.6
2454768.7
3149672.1
4215416.6
5988767.7
9015926
14241842
23446015
40267429
72851930
1.4167127e+08
3.0708178e+08
7.9363496e+08
2.8014762e+09
1.8230763e+10
4463.2009
11664.912
30842.202
60273.373
89940.472
117427.88
138686.39
149565.19
150455.18
163062.07
240472.63
438816.22
680264.56
1020622.6
1454099.6
1925161
2454281
3149311.7
4215820
5990686.3
9020272.7
14249960
23460267
40292388
72897152
1.417588e+08
3.0727039e+08
7.9411971e+08
2.8031793e+09
1.8241806e+10
4461.0147
11618.076
30682.555
60083.424
89776.58
117311.76
138629.63
149561.57
150460.84
163018.37
240378.72
438734.2
680319.7
1020966.7
1454336.7
1924978.1
2453790.6
3148950.5
4216223.6
5992604.1
9024615.1
14258068
23474498
40317308
72942303
1.418462e+08
3.074587e+08
7.9460368e+08
2.8048794e+09
1.825283e+10
4459.0423
11571.824
30523.627
59893.202
89612.211
117195.18
138572.55
149557.47
150466.1
162974.36
240284.28
438651.11
680373.47
1021308.3
1454569.7
1924791.1
2453297.4
3148588.1
4216626.3
5994519.2
9028950.3
14266161
23488703
40342182
72987372
1.4193344e+08
3.0764668e+08
7.9508683e+08
2.8065769e+09
1.8263837e+10
4457.2772
11526.142
30365.42
59702.718
89447.371
117078.16
138515.15
149552.89
150470.95
162930.04
240189.36
438567.02
680425.92
1021647.6
1454798.7
1924600.3
2452802.1
3148225.7
4217030.4
5996434.8
9033282.9
14274246
23502889
40367021
73032373
1.4202054e+08
3.0783438e+08
7.9556923e+08
2.8082719e+09
1.8274829e+10
4455.7125
11481.016
30207.936
59511.98
89282.063
116960.68
138457.43
149547.82
150475.38
162885.4
240093.96
438481.96
680477.07
1021984.5
1455023.4
1924405.1
2452303.8
3147862.1
4217433.9
5998348.2
9037608.7
14282316
23517050
40391813
73077290
1.4210748e+08
3.0802172e+08
7.9605076e+08
2.8099639e+09
1.82858e+10
4454.3414
11436.431
30051.178
59320.995
89116.291
116842.74
138399.38
149542.26
150479.38
162840.44
239998.09
438395.96
680526.96
1022319
1455244.1
1924206
2451803.3
3147497.9
4217837.7
6000260.7
9041930.2
14290376
23531189
40416567
73122135
1.4219428e+08
3.0820874e+08
7.9653145e+08
2.8116528e+09
1.829675e+10
4453.1568
11392.372
29895.143
59129.771
88950.059
116724.34
138341.02
149536.19
150482.93
162795.16
239901.76
438309.01
680575.57
1022651.2
1455460.7
1924002.8
2451299.9
3147132.5
4218240.7
6002170.7
9046244.6
14298421
23545303
40441276
73166898
1.4228092e+08
3.0839543e+08
7.9701127e+08
2.8133384e+09
1.830768e+10
4452.1517
11348.824
29739.835
58938.317
88783.371
116605.47
138282.34
149529.61
150486.03
162749.55
239805
438221.19
680623
1022981.2
1455673.3
1923795.7
2450794.4
3146767.2
4218645.1
6004081.3
9050557
14306459
23559400
40465953
73211603
1.4236745e+08
3.0858187e+08
7.9749042e+08
2.8150217e+09
1.8318596e+10
4451.3189
11305.77
29585.252
58746.642
88616.233
116486.14
138223.33
149522.52
150488.67
162703.6
239707.84
438132.55
680669.25
1023308.9
1455881.7
1923584.5
2450286.3
3146400.8
4219048.9
6005989.7
9054862.7
14314483
23573473
40490586
73256228
1.4245383e+08
3.0876799e+08
7.9796879e+08
2.8167025e+09
1.8329494e+10
4450.6511
11263.196
29431.399
58554.756
88448.647
116366.33
138164.02
149514.91
150490.84
162657.32
239610.28
438043.11
680714.37
1023634.2
1456086.2
1923369.7
2449775.9
3146034
4219453.3
6007897.7
9059164.8
14322498
23587526
40515183
73300785
1.4254007e+08
3.0895382e+08
7.9844641e+08
2.8183808e+09
1.8340377e+10
4450.141
11221.086
29278.271
58362.664
88280.621
116246.04
138104.39
149506.78
150492.54
162610.7
239512.34
437952.9
680758.38
1023957.4
1456286.6
1923150.6
2449262.8
3145666
4219856.9
6009803.1
9063459.6
14330498
23601553
40539735
73345261
1.4262615e+08
3.0913931e+08
7.9892319e+08
2.8200561e+09
1.835124e+10
4449.781
11179.424
29125.865
58170.372
88112.158
116125.27
138044.44
149498.12
150493.76
162563.74
239414.04
437862
680801.39
1024278.5
1456483.2
1922927.9
2448747.7
3145298.2
4220262
6011709.4
9067752.9
14338492
23615566
40564258
73389681
1.4271212e+08
3.0932454e+08
7.9939926e+08
2.8217286e+09
1.8362085e+10
4449.5638
11138.195
28974.176
57977.888
87943.263
116004.01
137984.18
149488.94
150494.5
162516.45
239315.41
437770.44
680843.36
1024597.3
1456675.7
1922701.3
2448230.1
3144929.4
4220666.5
6013613.3
9072039.7
14346472
23629554
40588738
73434024
1.4279795e+08
3.0950946e+08
7.9987453e+08
2.8233982e+09
1.8372911e+10
4449.482
11097.383
28823.197
57785.219
87773.947
115882.25
137923.61
149479.25
150494.77
162468.81
239216.46
437678.25
680884.37
1024913.9
1456864.5
1922471.1
2447710.4
3144560.3
4221071.7
6015517.2
9076323.3
14354444
23643525
40613185
73478306
1.4288365e+08
3.0969414e+08
8.0034914e+08
2.8250656e+09
1.8383723e+10
4449.5278
11056.972
28672.924
57592.372
87604.216
115759.98
137862.73
149469.03
150494.55
162420.84
239117.2
437585.48
680924.47
1025228.5
1457049.1
1922236.7
2447188
3144190.1
4221476.1
6017418.4
9080599.7
14362401
23657470
40637588
73522509
1.4296921e+08
3.098785e+08
8.0082298e+08
2.8267305e+09
1.8394519e+10
4449.6937
11016.947
28523.353
57399.352
87434.076
115637.2
137801.54
149458.28
150493.85
162372.52
239017.67
437492.2
680963.74
1025541
1457230.1
1921999
2446664.1
3143820.5
4221882.5
6019321
9084875.1
14370353
23671402
40661965
73566662
1.4305466e+08
3.1006262e+08
8.0129623e+08
2.8283935e+09
1.8405303e+10
4449.9721
10977.293
28374.476
57206.166
87263.533
115513.89
137740.04
149447.03
150492.68
162323.85
238917.87
437398.45
681002.19
1025851.4
1457407.3
1921757.5
2446137.8
3143450
4222288.4
6021221.4
9089144.4
14378292
23685310
40686299
73610737
1.4313996e+08
3.1024642e+08
8.0176866e+08
2.8300534e+09
1.8416066e+10
4450.3555
10937.993
28226.285
57012.82
87092.598
115390.05
137678.21
149435.26
150491.03
162274.84
238817.83
437304.27
681039.91
1026159.9
1457580.6
1921512.4
2445609.6
3143079.4
4222695.2
6023121.9
9093410.7
14386223
23699201
40710602
73654754
1.4322515e+08
3.1042996e+08
8.0224037e+08
2.8317105e+09
1.8426811e+10
4450.8364
10899.034
28078.769
56819.321
86921.283
115265.66
137616.08
149422.97
150488.91
162225.47
238717.55
437209.7
681076.92
1026466.5
1457750
1921263.4
2445078.9
3142708
4223101.5
6025020.3
9097670.7
14394141
23713070
40734866
73698701
1.4331021e+08
3.1061323e+08
8.0271137e+08
2.8333651e+09
1.843754e+10
4451.4071
10860.398
27931.923
56625.674
86749.599
115140.71
137553.62
149410.18
150486.32
162175.74
238617.06
437114.8
681113.33
1026771.2
1457915.9
1921011.3
2444546.8
3142337.4
4223510
6026920.4
9101930.3
14402054
23726928
40759106
73742600
1.4339517e+08
3.107963e+08
8.0318185e+08
2.835018e+09
1.8448259e+10
4452.0603
10822.073
27785.737
56431.883
86577.561
115015.19
137490.83
149396.9
150483.27
162125.64
238516.37
437019.64
681149.14
1027074.1
1458077.9
1920755.3
2444012.3
3141965.8
4223917.8
6028818
9106183.1
14409954
23740760
40783304
73786425
1.4347999e+08
3.1097906e+08
8.0365158e+08
2.8366685e+09
1.8458963e+10
4452.7883
10784.042
27640.198
56237.955
86405.181
114889.1
137427.7
149383.11
150479.76
162075.17
238415.49
436924.26
681184.48
1027375.4
1458236.2
1920495.8
2443476
3141594.3
4224326.7
6030715.8
9110433.4
14417846
23754577
40807472
73830194
1.4356469e+08
3.1116156e+08
8.0412067e+08
2.8383168e+09
1.8469652e+10
4453.5838
10746.293
27495.296
56043.895
86232.477
114762.4
137364.24
149368.83
150475.8
162024.32
238314.43
436828.7
681219.32
1027675.4
1458390.8
1920232.7
2442937.5
3141222.3
4224735.4
6032611.9
9114677.9
14425726
23768372
40831600
73873892
1.4364926e+08
3.1134377e+08
8.04589e+08
2.8399621e+09
1.8480323e+10
4454.4395
10708.81
27351.015
55849.709
86059.469
114635.1
137300.42
149354.06
150471.4
161973.07
238213.22
436733.07
681253.75
1027973.4
1458541.9
1919966.5
2442397.8
3140851.2
4225146.5
6034510.1
9118922.5
14433602
23782157
40855708
73917547
1.4373374e+08
3.1152579e+08
8.0505674e+08
2.841605e+09
1.8490979e+10
4455.3481
10671.581
27207.346
55655.403
85886.179
114507.17
137236.25
149338.82
150466.56
161921.4
238111.87
436637.45
681287.82
1028269.5
1458689.1
1919696.5
2441855.7
3140479.1
4225556.9
6036405.9
9123160.8
14441466
23795920
40879778
73961134
1.438181e+08
3.1170753e+08
8.0552377e+08
2.8432454e+09
1.8501621e+10
4456.3022
10634.59
27064.274
55460.979
85712.632
114378.6
137171.69
149323.1
150461.29
161869.3
238010.37
436541.91
681321.63
1028563.9
1458832.7
1919423.2
2441312.1
3140107.6
4225968.8
6038302.1
9127396.6
14449322
23809667
40903819
74004668
1.4390235e+08
3.1188905e+08
8.0599023e+08
2.8448839e+09
1.8512252e+10
4457.2949
10597.824
26921.783
55266.442
85538.854
114249.38
137106.75
149306.91
150455.6
161816.75
237908.73
436446.53
681355.2
1028856.4
1458972.6
1919146.5
2440766.6
3139735.6
4226380.7
6040196.8
9131627.2
14457167
23823393
40927821
74048133
1.4398646e+08
3.1207027e+08
8.0645596e+08
2.84652e+09
1.852287e+10
4458.319
10561.272
26779.855
55071.797
85364.878
114119.49
137041.4
149290.27
150449.5
161763.7
237806.96
436351.47
681388.72
1029147.1
1459109.1
1918866.7
2440219.8
3139364.5
4226794.6
6042093.3
9135857.4
14465007
23837108
40951801
74091553
1.4407047e+08
3.1225127e+08
8.069211e+08
2.8481538e+09
1.8533476e+10
4459.3676
10524.921
26638.476
54877.047
85190.736
113988.91
136975.63
149273.18
150443
161710.13
237705.06
436256.86
681422.25
1029436.2
1459241.8
1918583.2
2439670.9
3138992.8
4227208.2
6043987.7
9140081.3
14472835
23850800
40975741
74134900
1.4415436e+08
3.1243197e+08
8.0738539e+08
2.8497841e+09
1.8544063e+10
4460.4339
10488.757
26497.629
54682.196
85016.468
113857.62
136909.42
149255.63
150436.12
161655.98
237603
436162.85
681455.88
1029723.7
1459371
1918296.7
2439120.9
3138621.9
4227623.7
6045883
9144303.7
14480657
23864480
40999656
74178199
1.4423814e+08
3.1261243e+08
8.0784898e+08
2.8514113e+09
1.8554636e+10
4461.511
10452.769
26357.299
54487.246
84842
113725.76
136842.76
149237.65
150428.86
161601.23
237500.75
436069.62
681489.7
1030009.4
1459496.7
1918006.9
2438569
3138250.7
4228039.3
6047776.8
9148520.8
14488468
23878138
41023534
74221430
1.4432179e+08
3.1279262e+08
8.0831183e+08
2.8530358e+09
1.8565197e+10
4462.5923
10416.945
26217.471
54292.203
84667.311
113593.36
136775.65
149219.24
150421.25
161545.79
237398.31
435977.48
681523.93
1030293.6
1459618.9
1917714
2438015.8
3137880.3
4228456.7
6049672.1
9152737.3
14496273
23891784
41047388
74264614
1.4440533e+08
3.1297257e+08
8.0877401e+08
2.8546577e+09
1.857575e+10
4463.6714
10381.275
26078.127
54097.072
84492.417
113460.41
136708.06
149200.41
150413.3
161489.62
237295.61
435886.74
681558.61
1030576.3
1459737.5
1917417.8
2437461
3137509.7
4228874.1
6051565.6
9156947.8
14504066
23905408
41071202
74307725
1.4448873e+08
3.1315219e+08
8.0923531e+08
2.8562762e+09
1.858629e+10
4464.7418
10345.748
25939.255
53901.86
84317.325
113326.89
136640
149181.16
150405.03
161432.62
237192.57
435797.81
681593.87
1030857.5
1459852.9
1917118.9
2436905.2
3137140.2
4229293.7
6053460.2
9161156.6
14511853
23919018
41094987
74350780
1.4457202e+08
3.1333152e+08
8.0969579e+08
2.8578911e+09
1.8596818e+10
4465.7974
10310.355
25800.847
53706.568
84142.048
113192.79
136571.45
149161.51
150396.46
161374.72
237089.09
435711.26
681629.82
1031137.1
1459964.7
1916816.6
2436347.7
3136770.3
4229713.2
6055353.2
9165360.1
14519629
23932607
41118734
74393760
1.4465516e+08
3.135105e+08
8.101552e+08
2.8595011e+09
1.8607328e+10
4466.8321
10275.086
25662.896
53511.197
83966.586
113058.1
136502.41
149141.47
150387.63
161315.82
236985.01
435627.85
681666.6
1031415.4
1460073.2
1916511.5
2435789.1
3136401.4
4230134.5
6057247.1
9169562.2
14527399
23946182
41142455
74436688
1.4473818e+08
3.136892e+08
8.1061369e+08
2.8611068e+09
1.8617825e+10
4467.8398
10239.932
25525.397
53315.744
83790.94
112922.81
136432.87
149121.03
150378.57
161255.81
236880.09
435548.52
681704.07
1031692.2
1460178.5
1916203.4
2435229.3
3136032.7
4230556.2
6059139.8
9173758.9
14535156
23959735
41166135
74479540
1.4482104e+08
3.1386755e+08
8.1107112e+08
2.8627078e+09
1.8628312e+10
4468.8147
10204.887
25388.345
53120.206
83615.106
112786.91
136362.81
149100.21
150369.32
161194.58
236774.02
435474.62
681742.09
1031967.3
1460280.5
1915892.8
2434668.7
3135665.3
4230980.2
6061033.8
9177953.8
14542907
23973272
41189783
74522329
1.4490377e+08
3.1404554e+08
8.1152749e+08
2.8643041e+09
1.8638791e+10
4469.7513
10169.942
25251.741
52924.578
83439.079
112650.39
136292.24
149079.02
150359.93
161132.78
236667.34
435403.63
681780.23
1032240.7
1460378.8
1915578.8
2434106.3
3135297.4
4231403.9
6062925.6
9182142.4
14550644
23986785
41213387
74565033
1.4498631e+08
3.142231e+08
8.1198258e+08
2.8658948e+09
1.8649258e+10
4470.6437
10135.092
25115.588
52728.851
83262.85
112513.26
136221.15
149057.47
150350.43
161071.07
236560.72
435332.61
681818.15
1032512.6
1460474
1915262.2
2433543.2
3134930.8
4231829.7
6064818.4
9186329.6
14558376
24000284
41236961
74607672
1.4506872e+08
3.1440029e+08
8.1243647e+08
2.8674795e+09
1.8659714e+10
4471.4866
10100.329
24979.894
52533.017
83086.404
112375.52
136149.54
149035.55
150340.84
161009.49
236454.19
435261.4
681855.71
1032782.6
1460566.1
1914942.9
2432979.1
3134564.7
4232256
6066710.1
9190511.4
14566096
24013760
41260491
74650225
1.4515094e+08
3.14577e+08
8.1288879e+08
2.8690564e+09
1.8670152e+10
4472.2745
10065.648
24844.664
52337.06
82909.73
112237.15
136077.39
149013.29
150331.18
160948.05
236347.74
435190.03
681892.96
1033050.8
1460654.8
1914621
2432414.2
3134199.7
4232684.4
6068602.9
9194691.1
14573807
24027217
41283984
74692701
1.4523299e+08
3.1475327e+08
8.1333961e+08
2.8706257e+09
1.8680578e+10
4473.0021
10031.044
24709.901
52140.971
82732.812
112098.18
136004.71
148990.68
150321.44
160886.75
236241.38
435118.48
681929.9
1033317.2
1460739.9
1914295.7
2431847.5
3133834.2
4233112.4
6070493
9198863.6
14581504
24040647
41307427
74735083
1.4531483e+08
3.1492904e+08
8.137888e+08
2.8721872e+09
1.8690993e+10
4473.6644
9996.5097
24575.608
51944.737
82555.638
111958.6
135931.5
148967.73
150311.65
160825.6
236135.09
435046.74
681966.57
1033582
1460822
1913968
2431280.3
3133470.3
4233542.7
6072384.2
9203034.3
14589194
24054061
41330836
74777389
1.4539649e+08
3.1510432e+08
8.1423638e+08
2.8737408e+09
1.8701403e+10
4474.2563
9962.041
24441.789
51748.347
82378.199
111818.43
135857.75
148944.46
150301.8
160764.62
236028.88
434974.8
682002.9
1033844.9
1460901
1913637.8
2430712.2
3133106.9
4233973.4
6074274
9207199.1
14596870
24067448
41354193
74819592
1.4547792e+08
3.1527901e+08
8.1468207e+08
2.8752851e+09
1.8711802e+10
4474.7728
9927.6318
24308.449
51551.792
82200.483
111677.68
135783.46
148920.87
150291.92
160703.8
235922.76
434902.71
682038.97
1034106.1
1460976.5
1913304.8
2430143.2
3132744.4
4234405.8
6076164.3
9211361.1
14604537
24080816
41377508
74861703
1.4555915e+08
3.1545313e+08
8.1512581e+08
2.8768194e+09
1.8722189e+10
4475.209
9893.2763
24175.587
51355.059
82022.485
111536.34
135708.63
148896.97
150282.02
160643.15
235816.71
434830.43
682074.79
1034365.6
1461048.5
1912968.5
2429572.5
3132381.5
4234837.8
6078051.9
9215515.4
14612189
24094153
41400769
74903703
1.4564013e+08
3.1562659e+08
8.1556729e+08
2.8783419e+09
1.8732559e+10
4475.5601
9858.9691
24043.203
51158.141
81844.196
111394.44
135633.25
148872.76
150272.09
160582.68
235710.73
434757.97
682110.39
1034623.5
1461117.8
1912630.1
2429001.6
3132020.5
4235272.5
6079941.2
9219668.4
14619834
24107473
41423990
74945616
1.4572089e+08
3.1579947e+08
8.1600665e+08
2.879853e+09
1.8742918e+10
4475.8215
9824.705
23911.29
50961.03
81665.613
111251.99
135557.33
148848.25
150262.16
160522.4
235604.83
434685.34
682145.76
1034879.7
1461184
1912289.2
2428429.8
3131659.9
4235707.5
6081828.4
9223814.6
14627463
24120764
41447153
74987415
1.458014e+08
3.1597166e+08
8.1644367e+08
2.8813523e+09
1.8753268e+10
4475.9886
9790.4786
23779.844
50763.723
81486.736
111108.98
135480.86
148823.46
150252.24
160462.3
235498.99
434612.55
682180.95
1035134.2
1461246.7
1911945.5
2427857
3131300
4236143.8
6083715.5
9227956.9
14635082
24134031
41470268
75029105
1.4588164e+08
3.1614314e+08
8.1687826e+08
2.8828392e+09
1.8763612e+10
4476.0568
9756.2845
23648.861
50566.218
81307.565
110965.43
135403.82
148798.39
150242.32
160402.4
235393.2
434539.58
682215.95
1035387.1
1461306.2
1911598.7
2427282.8
3130940
4236579.7
6085600
9232091.4
14642684
24147267
41493321
75070670
1.459616e+08
3.1631385e+08
8.1731024e+08
2.8843127e+09
1.8773945e+10
4476.0218
9722.1172
23518.337
50368.508
81128.102
110821.33
135326.22
148773.04
150232.44
160342.69
235287.46
434466.41
682250.82
1035638.5
1461363
1911250.1
2426708.6
3130582.1
4237018.9
6087486.7
9236225.2
14650280
24160485
41516333
75112135
1.4604132e+08
3.1648385e+08
8.1773968e+08
2.8857725e+09
1.8784271e+10
4475.879
9687.9715
23388.265
50170.595
80948.346
110676.7
135248.04
148747.43
150222.58
160283.19
235181.76
434393.05
682285.52
1035888.3
1461416.7
1910898.9
2426133.4
3130224.7
4237458.3
6089371.2
9240351.7
14657860
24173671
41539282
75153470
1.4612073e+08
3.1665302e+08
8.1816615e+08
2.8872163e+09
1.8794581e+10
4475.6242
9653.8428
23258.638
49972.475
80768.303
110531.54
135169.27
148721.57
150212.76
160223.89
235076.09
434319.48
682320.09
1036136.6
1461467.2
1910544.9
2425557.3
3129867.9
4237898.6
6091255.1
9244473.6
14665427
24186830
41562176
75194686
1.4619985e+08
3.1682138e+08
8.1858968e+08
2.8886444e+09
1.8804877e+10
4475.2533
9619.7269
23129.447
49774.15
80587.975
110385.84
135089.91
148695.46
150202.99
160164.81
234970.43
434245.66
682354.49
1036383.4
1461514.6
1910188.2
2424980.1
3129511.2
4238338.8
6093136.3
9248587.5
14672978
24199957
41585007
75235771
1.4627866e+08
3.169889e+08
8.1901024e+08
2.8900567e+09
1.8815166e+10
4474.7588
9585.626
23000.699
49575.621
80407.369
110239.62
135009.95
148669.12
150193.28
160105.93
234864.79
434171.6
682388.78
1036628.8
1461559.5
1909829.8
2424402.9
3129156.6
4238782.3
6095020
9252700.8
14680522
24213065
41607791
75276744
1.4635719e+08
3.171556e+08
8.1942786e+08
2.8914535e+09
1.8825453e+10
4474.1174
9551.5215
22872.467
49376.886
80226.491
110092.86
134929.37
148642.55
150183.64
160047.27
234759.15
434097.3
682422.95
1036872.7
1461601.4
1909468.7
2423824.6
3128802.3
4239226
6096901.5
9256806.8
14688049
24226140
41630508
75317574
1.4643538e+08
3.1732136e+08
8.1984223e+08
2.8928332e+09
1.8835731e+10
4473.3192
9517.4013
22744.769
49177.95
80045.345
109945.57
134848.16
148615.77
150174.07
159988.83
234653.52
434022.76
682457.04
1037115.2
1461640.3
1909105.3
2423245.8
3128449
4239670.8
6098782.4
9260908.5
14695565
24239189
41653171
75358280
1.4651328e+08
3.1748625e+08
8.2025342e+08
2.8941956e+09
1.8846002e+10
4472.3581
9483.2571
22617.61
48978.809
79863.939
109797.75
134766.31
148588.79
150164.58
159930.6
234547.87
433947.94
682490.98
1037356.3
1461676.6
1908739.5
2422666.1
3128096
4240115.4
6100660.7
9265002.2
14703064
24252205
41675768
75398845
1.4659084e+08
3.176502e+08
8.2066118e+08
2.8955393e+09
1.8856257e+10
4471.2279
9449.0811
22490.99
48779.467
79682.278
109649.39
134683.8
148561.63
150155.18
159872.6
234442.21
433872.84
682524.83
1037596.1
1461710.4
1908372.2
2422086.6
3127745
4240563.3
6102541.3
9269094.9
14710555
24265199
41698314
75439294
1.4666809e+08
3.1781326e+08
8.210656e+08
2.8968644e+09
1.8866503e+10
4469.922
9414.8648
22364.916
48579.924
79500.372
109500.49
134600.62
148534.28
150145.89
159814.82
234336.53
433797.46
682558.58
1037834.5
1461741.3
1908002.3
2421506.2
3127394.5
4241011.4
6104419.8
9273180.3
14718030
24278161
41720794
75479601
1.46745e+08
3.1797537e+08
8.2146657e+08
2.898171e+09
1.8876742e+10
4468.4331
9380.5983
22239.399
48380.182
79318.125
109351.34
134516.94
148506.78
150136.7
159757.26
234230.83
433721.81
682592.23
1038071.6
1461769.5
1907630.5
2420925.6
3127045.5
4241461.3
6106298.3
9277261.9
14725494
24291098
41743218
75519777
1.4682158e+08
3.1813653e+08
8.2186414e+08
2.8994596e+09
1.8886978e+10
4466.7528
9346.2703
22114.454
48180.245
79135.437
109202.22
134432.97
148479.13
150127.63
159699.93
234125.11
433645.85
682625.73
1038307.2
1461795
1907256.6
2420344.7
3126697.3
4241911.6
6108175
9281336.8
14732942
24304003
41765576
75559809
1.4689782e+08
3.1829671e+08
8.2225824e+08
2.9007296e+09
1.8897209e+10
4464.8712
9311.8671
21990.104
47980.111
78952.308
109053.11
134348.68
148451.33
150118.68
159642.82
234019.35
433569.64
682659.2
1038541.6
1461818.2
1906881.1
2419763.9
3126351
4242364.9
6110053.9
9285411.2
14740384
24316888
41787890
75599729
1.4697377e+08
3.18456e+08
8.2264901e+08
2.9019809e+09
1.8907438e+10
4462.7772
9277.3728
21866.376
47779.787
78768.734
108904
134264.08
148423.4
150109.87
159585.94
233913.58
433493.18
682692.63
1038774.6
1461838.4
1906503.2
2419182.3
3126005.4
4242818.7
6111930.9
9289478.4
14747809
24329742
41810137
75639507
1.4704938e+08
3.1861431e+08
8.2303612e+08
2.9032121e+09
1.8917655e+10
4460.4574
9242.7682
21743.306
47579.272
78584.716
108754.88
134179.14
148395.35
150101.19
159529.28
233807.76
433416.44
682726
1039006.4
1461856
1906123.4
2418600.8
3125661.7
4243274.8
6113808.5
9293542.2
14755224
24342570
41832328
75679160
1.4712466e+08
3.1877167e+08
8.2341965e+08
2.9044234e+09
1.892786e+10
4457.8962
9208.0292
21620.938
47378.569
78400.25
108605.74
134093.85
148367.18
150092.66
159472.86
233701.91
433339.45
682759.28
1039236.7
1461871
1905741.7
2418019.1
3125319.1
4243732
6115685.4
9297600.9
14762626
24355371
41854461
75718680
1.4719961e+08
3.189281e+08
8.2379973e+08
2.9056157e+09
1.893806e+10
4455.0748
9173.1255
21499.334
47177.681
78215.337
108456.57
134008.21
148338.91
150084.3
159416.66
233596.04