/*--------------------------------*- C++ -*----------------------------------*\
| =========                 |                                                 |
| \\      /  F ield         | OpenFOAM: The Open Source CFD Toolbox           |
|  \\    /   O peration     | Version:  v2012                                 |
|   \\  /    A nd           | Website:  www.openfoam.com                      |
|    \\/     M anipulation  |                                                 |
\*---------------------------------------------------------------------------*/
FoamFile
{
    version     2.0;
    format      ascii;
    class       surfaceScalarField;
    location    "800";
    object      phi;
}
// * * * * * * * * * * * * * * * * * * * * * * * * * * * * * * * * * * * * * //

dimensions      [1 0 -1 0 0 0 0];
oriented        oriented;


internalField   nonuniform List<scalar> 
47170
(
-1.1862386e-08
-4.3617032e-05
-1.8724321e-08
-3.5823049e-05
-1.546755e-08
-2.8040698e-05
-6.4383507e-09
-2.0229359e-05
8.6377005e-10
-1.3740679e-05
4.6134743e-09
-9.0834301e-06
5.7572478e-09
-6.0405591e-06
5.4752676e-09
-4.0895299e-06
4.6525113e-09
-2.8458091e-06
3.6611551e-09
-2.0053668e-06
2.7171613e-09
-1.3890342e-06
2.0215167e-09
-9.4448142e-07
1.5337066e-09
-6.4856434e-07
1.1581751e-09
-4.5010092e-07
8.6334579e-10
-3.103029e-07
6.3848162e-10
-2.113117e-07
4.6788536e-10
-1.4273259e-07
3.3849086e-10
-9.574772e-08
2.4152082e-10
-6.3805397e-08
1.6944604e-10
-4.2294622e-08
1.1644678e-10
-2.7908934e-08
7.785656e-11
-1.8308714e-08
5.0341717e-11
-1.1905791e-08
3.1154242e-11
-7.6409651e-09
1.8219113e-11
-4.8091548e-09
9.8230936e-12
-2.9392083e-09
4.6707581e-12
-1.7148743e-09
1.7679999e-12
-9.2315074e-10
3.8292555e-13
-4.202867e-10
-1.0921725e-10
-1.3039944e-08
-4.3603992e-05
-2.0760227e-08
-3.5815328e-05
-1.6904334e-08
-2.8044554e-05
-6.3601578e-09
-2.0239903e-05
2.2001908e-09
-1.3749239e-05
6.4482911e-09
-9.0876782e-06
7.6351275e-09
-6.0417458e-06
7.1541297e-09
-4.0890489e-06
5.8884991e-09
-2.8445433e-06
4.5120033e-09
-2.0039903e-06
3.3968288e-09
-1.3879189e-06
2.5674524e-09
-9.4365206e-07
1.9486497e-09
-6.4794544e-07
1.4536907e-09
-4.4960599e-07
1.0568416e-09
-3.0990598e-07
7.5565429e-10
-2.1101054e-07
5.3353993e-10
-1.4251043e-07
3.7170031e-10
-9.5585904e-08
2.5541367e-10
-6.3689083e-08
1.7289141e-10
-4.2212116e-08
1.1493115e-10
-2.7850959e-08
7.460668e-11
-1.8268397e-08
4.6977836e-11
-1.1878155e-08
2.8405369e-11
-7.622392e-09
1.6253001e-11
-4.796997e-09
8.5763202e-12
-2.9315306e-09
3.9848873e-12
-1.7102744e-09
1.4636381e-12
-9.206235e-10
3.0328847e-13
-4.191221e-10
-1.0891396e-10
-1.3414083e-08
-4.3590578e-05
-2.1295549e-08
-3.5807447e-05
-1.7199258e-08
-2.804865e-05
-6.2593307e-09
-2.0250843e-05
2.6814999e-09
-1.375818e-05
7.0398525e-09
-9.0920365e-06
8.1620615e-09
-6.0428679e-06
7.5534362e-09
-4.0884403e-06
6.1552967e-09
-2.8431451e-06
4.6693993e-09
-2.0025044e-06
3.4624672e-09
-1.3867119e-06
2.5494072e-09
-9.4273904e-07
1.8644543e-09
-6.4726044e-07
1.3234599e-09
-4.4906504e-07
8.9978565e-10
-3.0948227e-07
5.8978873e-10
-2.1070057e-07
3.7416348e-10
-1.4229477e-07
2.2964545e-10
-9.5441409e-08
1.3675079e-10
-6.3596167e-08
7.9466172e-11
-4.2154845e-08
4.5237433e-11
-2.7816717e-08
2.5205572e-11
-1.8248373e-08
1.3718167e-11
-1.186666e-08
7.2306265e-12
-7.6159092e-09
3.6512047e-12
-4.7934153e-09
1.7253888e-12
-2.9296044e-09
7.2672554e-13
-1.7092801e-09
2.461087e-13
-9.201458e-10
4.6931072e-14
-4.1892499e-10
-1.0886703e-10
-1.3665727e-08
-4.3576913e-05
-2.1649428e-08
-3.5799463e-05
-1.739839e-08
-2.8052901e-05
-6.1925836e-09
-2.0262048e-05
3.0063717e-09
-1.3767379e-05
7.4357451e-09
-9.0964659e-06
8.521986e-09
-6.0439541e-06
7.845698e-09
-4.0877641e-06
6.3903075e-09
-2.8416897e-06
4.8576858e-09
-2.0009718e-06
3.6012935e-09
-1.3854554e-06
2.6487752e-09
-9.4178656e-07
1.9381149e-09
-6.4654974e-07
1.3815303e-09
-4.4850848e-07
9.496878e-10
-3.0905038e-07
6.366973e-10
-2.1038759e-07
4.193082e-10
-1.4207734e-07
2.7197437e-10
-9.5294072e-08
1.7438053e-10
-6.349854e-08
1.1084192e-10
-4.2091296e-08
6.9759944e-11
-2.7775611e-08
4.3244926e-11
-1.8221845e-08
2.620823e-11
-1.1849608e-08
1.5358752e-11
-7.6050477e-09
8.5666639e-12
-4.786611e-09
4.4246672e-12
-2.9254573e-09
2.0245036e-12
-1.7068641e-09
7.3654138e-13
-9.1884633e-10
1.5349103e-13
-4.1833377e-10
-1.0871354e-10
-1.3784163e-08
-4.3563129e-05
-2.1802731e-08
-3.5791445e-05
-1.7487632e-08
-2.8057216e-05
-6.1540826e-09
-2.0273382e-05
3.1904756e-09
-1.3776723e-05
7.6564858e-09
-9.1009319e-06
8.7233404e-09
-6.0450209e-06
8.0111747e-09
-4.0870519e-06
6.5254396e-09
-2.8402039e-06
4.9671565e-09
-1.9994136e-06
3.6836693e-09
-1.3841719e-06
2.7080011e-09
-9.4081092e-07
1.9805494e-09
-6.4582225e-07
1.4120899e-09
-4.4794005e-07
9.7163343e-10
-3.086099e-07
6.5188367e-10
-2.1006788e-07
4.2913807e-10
-1.4185458e-07
2.7767515e-10
-9.514264e-08
1.7719203e-10
-6.3398048e-08
1.1184985e-10
-4.2025978e-08
6.982973e-11
-2.7733587e-08
4.2915345e-11
-1.8194949e-08
2.5803949e-11
-1.1832494e-08
1.501148e-11
-7.5942662e-09
8.3278388e-12
-4.7799291e-09
4.2925111e-12
-2.9214255e-09
1.9581853e-12
-1.7045363e-09
7.1053021e-13
-9.176038e-10
1.4510885e-13
-4.1777199e-10
-1.0856843e-10
-1.3832155e-08
-4.3549296e-05
-2.1865144e-08
-3.5783412e-05
-1.7540708e-08
-2.8061541e-05
-6.1410223e-09
-2.0284782e-05
3.29611e-09
-1.378616e-05
7.7879043e-09
-9.1054237e-06
8.8466635e-09
-6.0460797e-06
8.1152517e-09
-4.0863205e-06
6.6133483e-09
-2.8387019e-06
5.0412515e-09
-1.9978415e-06
3.7419617e-09
-1.3828726e-06
2.7520604e-09
-9.3982105e-07
2.0138488e-09
-6.4508401e-07
1.4373621e-09
-4.4736359e-07
9.9085219e-10
-3.0816336e-07
6.6623797e-10
-2.0974328e-07
4.3969796e-10
-1.4162802e-07
2.8534784e-10
-9.4988299e-08
1.8265949e-10
-6.329534e-08
1.1568174e-10
-4.1959004e-08
7.2443445e-11
-2.7690336e-08
4.4652512e-11
-1.8167156e-08
2.6906314e-11
-1.181474e-08
1.5681932e-11
-7.5830381e-09
8.7054304e-12
-4.7729458e-09
4.4796033e-12
-2.9171984e-09
2.0429705e-12
-1.7020891e-09
7.4118289e-13
-9.1629462e-10
1.5343117e-13
-4.1717899e-10
-1.08415e-10
-1.3837477e-08
-4.3535459e-05
-2.1876614e-08
-3.5775373e-05
-1.7577785e-08
-2.806584e-05
-6.1477739e-09
-2.0296212e-05
3.3509648e-09
-1.3795659e-05
7.863925e-09
-9.1099367e-06
8.921091e-09
-6.0471368e-06
8.1794671e-09
-4.0855789e-06
6.66844e-09
-2.8371909e-06
5.0883368e-09
-1.9962614e-06
3.77948e-09
-1.3815637e-06
2.7805315e-09
-9.3882213e-07
2.0351872e-09
-6.4433864e-07
1.4534873e-09
-4.4678191e-07
1.0028298e-09
-3.0771268e-07
6.7501377e-10
-2.0941548e-07
4.4597287e-10
-1.4139895e-07
2.8974959e-10
-9.4832085e-08
1.8567962e-10
-6.3191254e-08
1.1771905e-10
-4.1891049e-08
7.3789378e-11
-2.7646395e-08
4.5521495e-11
-1.8138893e-08
2.7458096e-11
-1.1796671e-08
1.6020134e-11
-7.5716029e-09
8.9062609e-12
-4.7658303e-09
4.5968982e-12
-2.9128894e-09
2.0994649e-12
-1.6995937e-09
7.6261469e-13
-9.1495937e-10
1.565394e-13
-4.1657405e-10
-1.0825846e-10
-1.3819159e-08
-4.352164e-05
-2.1863287e-08
-3.5767329e-05
-1.761119e-08
-2.8070092e-05
-6.170045e-09
-2.0307653e-05
3.3732935e-09
-1.3805202e-05
7.9054169e-09
-9.1144688e-06
8.9649082e-09
-6.0481963e-06
8.2183571e-09
-4.0848324e-06
6.7021549e-09
-2.8356747e-06
5.1174287e-09
-1.9946767e-06
3.8027979e-09
-1.380249e-06
2.7981828e-09
-9.3781753e-07
2.0483488e-09
-6.4358878e-07
1.4633484e-09
-4.4619692e-07
1.0101286e-09
-3.0725943e-07
6.8034749e-10
-2.090857e-07
4.4977007e-10
-1.4116835e-07
2.9239263e-10
-9.4674702e-08
1.8749058e-10
-6.3086327e-08
1.1893761e-10
-4.1822488e-08
7.4581307e-11
-2.7602022e-08
4.6025325e-11
-1.8110327e-08
2.7760162e-11
-1.1778395e-08
1.6194895e-11
-7.5600301e-09
8.9974073e-12
-4.7586256e-09
4.6358097e-12
-2.9085246e-09
2.1153706e-12
-1.697065e-09
7.6790897e-13
-9.1360593e-10
1.5875893e-13
-4.1596066e-10
-1.080997e-10
-1.3788131e-08
-4.3507852e-05
-2.1838947e-08
-3.5759278e-05
-1.7645593e-08
-2.8074285e-05
-6.2045539e-09
-2.0319094e-05
3.3733509e-09
-1.381478e-05
7.9245604e-09
-9.11902e-06
8.9885908e-09
-6.0492603e-06
8.2404673e-09
-4.0840843e-06
6.7216104e-09
-2.8341558e-06
5.1344712e-09
-1.9930896e-06
3.8165728e-09
-1.3789311e-06
2.8086442e-09
-9.3680963e-07
2.0562057e-09
-6.4283632e-07
1.469187e-09
-4.4560993e-07
1.0146059e-09
-3.0680484e-07
6.8366987e-10
-2.087548e-07
4.522236e-10
-1.409369e-07
2.9416594e-10
-9.4516676e-08
1.8876646e-10
-6.298093e-08
1.1982793e-10
-4.1753575e-08
7.5201187e-11
-2.7557399e-08
4.6439425e-11
-1.8081584e-08
2.8038137e-11
-1.1759996e-08
1.6371392e-11
-7.5483744e-09
9.1090989e-12
-4.7513666e-09
4.7065275e-12
-2.9041259e-09
2.1514587e-12
-1.6945161e-09
7.8205961e-13
-9.1224138e-10
1.6010134e-13
-4.1534214e-10
-1.079396e-10
-1.3750672e-08
-4.3494101e-05
-2.1810846e-08
-3.5751218e-05
-1.7683565e-08
-2.8078412e-05
-6.2488017e-09
-2.0330529e-05
3.3576979e-09
-1.3824387e-05
7.9282358e-09
-9.1235906e-06
8.9992317e-09
-6.0503313e-06
8.2512988e-09
-4.0833364e-06
6.7314278e-09
-2.8326359e-06
5.1433267e-09
-1.9915015e-06
3.8238417e-09
-1.3776116e-06
2.8141339e-09
-9.3579995e-07
2.0601366e-09
-6.4208231e-07
1.4720129e-09
-4.4502183e-07
1.0166453e-09
-3.0634946e-07
6.8515549e-10
-2.0842332e-07
4.5327586e-10
-1.4070501e-07
2.9492226e-10
-9.4358335e-08
1.8927748e-10
-6.2875277e-08
1.2016678e-10
-4.1684471e-08
7.54114e-11
-2.7512637e-08
4.6567877e-11
-1.8052741e-08
2.8103246e-11
-1.1741527e-08
1.6401724e-11
-7.5366711e-09
9.1156253e-12
-4.7440761e-09
4.6973454e-12
-2.8997072e-09
2.1442737e-12
-1.6919553e-09
7.7856534e-13
-9.1087022e-10
1.609011e-13
-4.1472061e-10
-1.077787e-10
-1.3710359e-08
-4.3480391e-05
-2.1782292e-08
-3.5743146e-05
-1.7726419e-08
-2.8082468e-05
-6.3011456e-09
-2.0341954e-05
3.3309103e-09
-1.3834019e-05
7.9215594e-09
-9.1281812e-06
9.0006404e-09
-6.0514104e-06
8.2543809e-09
-4.0825901e-06
6.7347009e-09
-2.8311162e-06
5.1466177e-09
-1.9899135e-06
3.8267428e-09
-1.3762917e-06
2.8162964e-09
-9.3478952e-07
2.061513e-09
-6.4132751e-07
1.4729823e-09
-4.4443332e-07
1.0173448e-09
-3.0589381e-07
6.8575718e-10
-2.0809175e-07
4.5377009e-10
-1.4047301e-07
2.9532593e-10
-9.4199902e-08
1.8960195e-10
-6.2769543e-08
1.2042216e-10
-4.1615298e-08
7.5603948e-11
-2.7467813e-08
4.6707168e-11
-1.802385e-08
2.8205306e-11
-1.1723022e-08
1.6472785e-11
-7.5249418e-09
9.1648036e-12
-4.7367677e-09
4.7335013e-12
-2.8952767e-09
2.163145e-12
-1.6893873e-09
7.860956e-13
-9.09495e-10
1.6140316e-13
-4.1409722e-10
-1.0761729e-10
-1.3669372e-08
-4.3466722e-05
-2.1755036e-08
-3.573506e-05
-1.7773594e-08
-2.808645e-05
-6.3598468e-09
-2.0353368e-05
3.2954817e-09
-1.3843674e-05
7.9072041e-09
-9.1327929e-06
8.9955537e-09
-6.0524987e-06
8.252283e-09
-4.0818469e-06
6.7335269e-09
-2.8295974e-06
5.1460588e-09
-1.988326e-06
3.8265436e-09
-1.3749722e-06
2.8160227e-09
-9.3377902e-07
2.0610796e-09
-6.4057255e-07
1.4725451e-09
-4.4384479e-07
1.0170837e-09
-3.0543833e-07
6.8558316e-10
-2.0776026e-07
4.5367161e-10
-1.4024108e-07
2.9527035e-10
-9.4041497e-08
1.8958331e-10
-6.2663838e-08
1.2042274e-10
-4.1546131e-08
7.560071e-11
-2.7422977e-08
4.6703007e-11
-1.7994944e-08
2.8194006e-11
-1.1704505e-08
1.6461109e-11
-7.5132026e-09
9.1515994e-12
-4.7294523e-09
4.7187304e-12
-2.8908412e-09
2.1543778e-12
-1.686816e-09
7.8237677e-13
-9.0811799e-10
1.6165413e-13
-4.1347294e-10
-1.0745564e-10
-1.3628975e-08
-4.3453093e-05
-2.1730171e-08
-3.5726959e-05
-1.7824871e-08
-2.8090355e-05
-6.4235835e-09
-2.0364769e-05
3.2540967e-09
-1.3853352e-05
7.8874416e-09
-9.1374263e-06
8.9859172e-09
-6.0535972e-06
8.2465557e-09
-4.0811075e-06
6.7292816e-09
-2.8280802e-06
5.142986e-09
-1.9867398e-06
3.8244126e-09
-1.3736536e-06
2.8143839e-09
-9.3276901e-07
2.0597602e-09
-6.3981792e-07
1.4714007e-09
-4.4325646e-07
1.0162845e-09
-3.0498321e-07
6.8506684e-10
-2.0742907e-07
4.5338576e-10
-1.400094e-07
2.9514117e-10
-9.3883281e-08
1.8955786e-10
-6.2558259e-08
1.2044106e-10
-4.1477036e-08
7.5645394e-11
-2.7378185e-08
4.6746449e-11
-1.7966061e-08
2.823838e-11
-1.1685999e-08
1.6495882e-11
-7.5014695e-09
9.1810288e-12
-4.7221401e-09
4.7439614e-12
-2.8864074e-09
2.1688018e-12
-1.6842454e-09
7.8845618e-13
-9.0674133e-10
1.61633e-13
-4.1284873e-10
-1.0729401e-10
-1.3589662e-08
-4.3439503e-05
-2.1707918e-08
-3.5718841e-05
-1.7879126e-08
-2.8094184e-05
-6.4915962e-09
-2.0376156e-05
3.2075875e-09
-1.3863051e-05
7.8637839e-09
-9.1420825e-06
8.9728709e-09
-6.0547062e-06
8.2379447e-09
-4.0803726e-06
6.7226683e-09
-2.8265649e-06
5.1380126e-09
-1.9851551e-06
3.8207363e-09
-1.3723363e-06
2.8115554e-09
-9.3175985e-07
2.0573564e-09
-6.3906371e-07
1.4694913e-09
-4.4266861e-07
1.0147685e-09
-3.0452847e-07
6.8401581e-10
-2.0709833e-07
4.5265309e-10
-1.3977803e-07
2.9466802e-10
-9.3725306e-08
1.8924139e-10
-6.2452826e-08
1.2023325e-10
-4.1408034e-08
7.5504549e-11
-2.7333452e-08
4.6654673e-11
-1.7937212e-08
2.8170838e-11
-1.1667512e-08
1.6449786e-11
-7.4897469e-09
9.1467994e-12
-4.7148337e-09
4.7168863e-12
-2.881977e-09
2.1540392e-12
-1.6816768e-09
7.8243848e-13
-9.053656e-10
1.6153623e-13
-4.122249e-10
-1.0713247e-10
-1.3551657e-08
-4.3425951e-05
-2.1687805e-08
-3.5710704e-05
-1.7937101e-08
-2.8097934e-05
-6.5631482e-09
-2.038753e-05
3.1574218e-09
-1.3872772e-05
7.8369441e-09
-9.146762e-06
8.9577542e-09
-6.055827e-06
8.227355e-09
-4.0796422e-06
6.7144251e-09
-2.8250519e-06
5.1317225e-09
-1.9835724e-06
3.8160285e-09
-1.3710206e-06
2.8079157e-09
-9.3075175e-07
2.0543287e-09
-6.3831011e-07
1.467138e-09
-4.4208144e-07
1.0131288e-09
-3.0407446e-07
6.8289973e-10
-2.0676811e-07
4.5193669e-10
-1.3954706e-07
2.9422573e-10
-9.3567608e-08
1.8899042e-10
-6.2347587e-08
1.2010291e-10
-4.1339155e-08
7.5444137e-11
-2.7288791e-08
4.6631738e-11
-1.7908406e-08
2.817045e-11
-1.164905e-08
1.6458247e-11
-7.4780386e-09
9.1591432e-12
-4.7075354e-09
4.7313855e-12
-2.8775512e-09
2.1628763e-12
-1.6791106e-09
7.8619651e-13
-9.0399107e-10
1.6139655e-13
-4.1160162e-10
-1.0697107e-10
-1.3515116e-08
-4.3412436e-05
-2.1669508e-08
-3.570255e-05
-1.7997883e-08
-2.8101606e-05
-6.6379196e-09
-2.039889e-05
3.1040136e-09
-1.3882514e-05
7.8079289e-09
-9.151466e-06
8.9406665e-09
-6.0569598e-06
8.2153319e-09
-4.0789169e-06
6.7050297e-09
-2.8235416e-06
5.1244955e-09
-1.9819919e-06
3.8106076e-09
-1.3697067e-06
2.8037073e-09
-9.2974487e-07
2.0509737e-09
-6.3755737e-07
1.464427e-09
-4.414949e-07
1.0111332e-09
-3.0362115e-07
6.8145417e-10
-2.0643844e-07
4.5093655e-10
-1.3931653e-07
2.9354814e-10
-9.3410218e-08
1.8855107e-10
-6.2242579e-08
1.1982483e-10
-4.1270425e-08
7.5260132e-11
-2.7244218e-08
4.6514294e-11
-1.7879655e-08
2.8091679e-11
-1.1630622e-08
1.6408588e-11
-7.4663516e-09
9.1260615e-12
-4.7002495e-09
4.709078e-12
-2.8731326e-09
2.1509415e-12
-1.6765486e-09
7.8140474e-13
-9.0261865e-10
1.6115855e-13
-4.1097933e-10
-1.0680991e-10
-1.3480157e-08
-4.3398956e-05
-2.1653371e-08
-3.5694377e-05
-1.8060996e-08
-2.8105198e-05
-6.7149259e-09
-2.0410236e-05
3.0481499e-09
-1.3892277e-05
7.7770083e-09
-9.1561948e-06
8.9221322e-09
-6.0581049e-06
8.2024023e-09
-4.0781972e-06
6.6949029e-09
-2.8220341e-06
5.116683e-09
-1.9804137e-06
3.8047883e-09
-1.3683948e-06
2.7992794e-09
-9.2873938e-07
2.0475274e-09
-6.3680561e-07
1.4617514e-09
-4.4090915e-07
1.0090994e-09
-3.0316851e-07
6.8007246e-10
-2.0610944e-07
4.5002932e-10
-1.3908649e-07
2.9299177e-10
-9.3253214e-08
1.8823435e-10
-6.2137833e-08
1.1964879e-10
-4.1201866e-08
7.5176722e-11
-2.7199755e-08
4.6473997e-11
-1.7850972e-08
2.808344e-11
-1.1612237e-08
1.6410955e-11
-7.4546909e-09
9.1366898e-12
-4.6929801e-09
4.7227702e-12
-2.8687234e-09
2.1599777e-12
-1.6739919e-09
7.8539514e-13
-9.012491e-10
1.6082808e-13
-4.1035834e-10
-1.0664909e-10
-1.3446694e-08
-4.338551e-05
-2.1639634e-08
-3.5686184e-05
-1.812561e-08
-2.8108712e-05
-6.7943367e-09
-2.0421568e-05
2.9903176e-09
-1.3902061e-05
7.7447665e-09
-9.1609493e-06
8.9026391e-09
-6.0592628e-06
8.1886708e-09
-4.0774832e-06
6.6841155e-09
-2.8205296e-06
5.1082926e-09
-1.9788379e-06
3.7984699e-09
-1.367085e-06
2.7944381e-09
-9.2773536e-07
2.0435607e-09
-6.3605473e-07
1.4586303e-09
-4.4032424e-07
1.006822e-09
-3.027167e-07
6.7846034e-10
-2.057811e-07
4.4890577e-10
-1.3885694e-07
2.922434e-10
-9.3096568e-08
1.877301e-10
-6.2033321e-08
1.193152e-10
-4.1133462e-08
7.4953883e-11
-2.7155394e-08
4.6329427e-11
-1.7822352e-08
2.7982767e-11
-1.1593891e-08
1.6344716e-11
-7.443054e-09
9.0910787e-12
-4.6857253e-09
4.6898284e-12
-2.8643231e-09
2.1422506e-12
-1.6714401e-09
7.7831189e-13
-8.9988222e-10
1.6053871e-13
-4.0973848e-10
-1.0648855e-10
-1.3414571e-08
-4.3372095e-05
-2.1627588e-08
-3.5677971e-05
-1.8192243e-08
-2.8112148e-05
-6.8754452e-09
-2.0432884e-05
2.9304667e-09
-1.3911867e-05
7.7114104e-09
-9.1657302e-06
8.8822813e-09
-6.0604336e-06
8.1741459e-09
-4.0767751e-06
6.6727966e-09
-2.8190282e-06
5.099515e-09
-1.9772646e-06
3.7918687e-09
-1.3657773e-06
2.7893859e-09
-9.2673289e-07
2.0395044e-09
-6.3530485e-07
1.4554932e-09
-4.3974024e-07
1.0045768e-09
-3.0226578e-07
6.7687519e-10
-2.0545342e-07
4.4785191e-10
-1.3862792e-07
2.9155676e-10
-9.2940288e-08
1.8730867e-10
-6.1929075e-08
1.1906683e-10
-4.1065232e-08
7.4815139e-11
-2.7111144e-08
4.6256092e-11
-1.7793801e-08
2.7950696e-11
-1.1575587e-08
1.6334185e-11
-7.431443e-09
9.0926716e-12
-4.6784862e-09
4.6992668e-12
-2.8599322e-09
2.1487872e-12
-1.6688938e-09
7.8130014e-13
-8.9851818e-10
1.6021685e-13
-4.0911984e-10
-1.0632833e-10
-1.3383793e-08
-4.3358711e-05
-2.1616726e-08
-3.5669738e-05
-1.8261171e-08
-2.8115503e-05
-6.9588398e-09
-2.0444187e-05
2.8691198e-09
-1.3921695e-05
7.6770586e-09
-9.1705382e-06
8.8615857e-09
-6.0616182e-06
8.1592856e-09
-4.0760728e-06
6.661219e-09
-2.8175301e-06
5.0905373e-09
-1.975694e-06
3.7850925e-09
-1.3644719e-06
2.7841798e-09
-9.2573199e-07
2.0354363e-09
-6.345561e-07
1.4522463e-09
-4.3915706e-07
1.0020513e-09
-3.0181558e-07
6.7505575e-10
-2.0512643e-07
4.4657063e-10
-1.3839943e-07
2.9068235e-10
-9.2784401e-08
1.8673078e-10
-6.1825117e-08
1.1869256e-10
-4.0997192e-08
7.4565052e-11
-2.7067011e-08
4.6094592e-11
-1.7765327e-08
2.7841985e-11
-1.1557331e-08
1.6264302e-11
-7.4198623e-09
9.046244e-12
-4.6712655e-09
4.6675355e-12
-2.8555525e-09
2.1320264e-12
-1.6663539e-09
7.7460892e-13
-8.9715752e-10
1.598176e-13
-4.0850274e-10
-1.0616851e-10
-1.3354522e-08
-4.3345357e-05
-2.1607428e-08
-3.5661485e-05
-1.833156e-08
-2.8118779e-05
-7.0435529e-09
-2.0455475e-05
2.8061859e-09
-1.3931545e-05
7.6418805e-09
-9.1753739e-06
8.840074e-09
-6.0628164e-06
8.1441089e-09
-4.0753769e-06
6.6494256e-09
-2.8160354e-06
5.0814048e-09
-1.974126e-06
3.77824e-09
-1.3631687e-06
2.7789494e-09
-9.2473272e-07
2.0313283e-09
-6.3380848e-07
1.4490641e-09
-4.3857482e-07
9.9975292e-10
-3.0136628e-07
6.7349155e-10
-2.0480019e-07
4.4553275e-10
-1.3817148e-07
2.9003678e-10
-9.2628934e-08
1.863521e-10
-6.1721443e-08
1.1847698e-10
-4.0929341e-08
7.4455344e-11
-2.7022999e-08
4.6038564e-11
-1.7736929e-08
2.7825623e-11
-1.1539124e-08
1.6264148e-11
-7.4083123e-09
9.0564755e-12
-4.6640634e-09
4.6828972e-12
-2.851184e-09
2.1422814e-12
-1.6638205e-09
7.7910345e-13
-8.9580026e-10
1.594072e-13
-4.0788725e-10
-1.0600911e-10
-1.3326763e-08
-4.333203e-05
-2.160027e-08
-3.5653212e-05
-1.840308e-08
-2.8121976e-05
-7.1297032e-09
-2.0466748e-05
2.7421039e-09
-1.3941417e-05
7.6060946e-09
-9.1802379e-06
8.8182046e-09
-6.0640285e-06
8.1287415e-09
-4.0746874e-06
6.6374539e-09
-2.8145442e-06
5.072118e-09
-1.9725606e-06
3.7712651e-09
-1.3618679e-06
2.7736226e-09
-9.2373509e-07
2.0269917e-09
-6.3306185e-07
1.4457034e-09
-4.3799355e-07
9.9732025e-10
-3.0091789e-07
6.7173717e-10
-2.0447463e-07
4.4431097e-10
-1.3794406e-07
2.8921067e-10
-9.2473846e-08
1.8579107e-10
-6.1618025e-08
1.1810295e-10
-4.0861661e-08
7.4203598e-11
-2.69791e-08
4.5873147e-11
-1.7708601e-08
2.7710664e-11
-1.1520963e-08
1.6187804e-11
-7.3967904e-09
9.0043866e-12
-4.6568791e-09
4.6450996e-12
-2.8468257e-09
2.1219462e-12
-1.661293e-09
7.7091847e-13
-8.9444616e-10
1.5904704e-13
-4.072732e-10
-1.0585006e-10
-1.3300259e-08
-4.331873e-05
-2.1594928e-08
-3.5644917e-05
-1.8475819e-08
-2.8125095e-05
-7.2175246e-09
-2.0478006e-05
2.676743e-09
-1.3951311e-05
7.5696187e-09
-9.1851308e-06
8.7960486e-09
-6.0652549e-06
8.1130023e-09
-4.0740044e-06
6.6252565e-09
-2.8130564e-06
5.0627416e-09
-1.9709981e-06
3.7642771e-09
-1.3605694e-06
2.7683322e-09
-9.2273916e-07
2.022824e-09
-6.3231634e-07
1.4424326e-09
-4.3741317e-07
9.9485332e-10
-3.0047031e-07
6.6998932e-10
-2.0414978e-07
4.4313637e-10
-1.3771721e-07
2.8843461e-10
-9.2319157e-08
1.8530567e-10
-6.1514898e-08
1.1780781e-10
-4.0794172e-08
7.4034067e-11
-2.6935328e-08
4.5779301e-11
-1.7680354e-08
2.7665454e-11
-1.150285e-08
1.6169547e-11
-7.3852994e-09
9.0018893e-12
-4.6497138e-09
4.6527166e-12
-2.8424789e-09
2.1275779e-12
-1.6587719e-09
7.7357318e-13
-8.9309553e-10
1.5865446e-13
-4.0666067e-10
-1.056914e-10
-1.3274958e-08
-4.3305455e-05
-2.1590965e-08
-3.5636601e-05
-1.8550704e-08
-2.8128136e-05
-7.3066353e-09
-2.0489251e-05
2.6099963e-09
-1.3961228e-05
7.532689e-09
-9.1900535e-06
8.773543e-09
-6.0664957e-06
8.0969537e-09
-4.0733278e-06
6.6128682e-09
-2.8115723e-06
5.0532552e-09
-1.9694385e-06
3.7571745e-09
-1.3592733e-06
2.7628783e-09
-9.2174487e-07
2.0185577e-09
-6.3157202e-07
1.439058e-09
-4.3683368e-07
9.9228894e-10
-3.0002354e-07
6.6816987e-10
-2.0382566e-07
4.4184781e-10
-1.3749088e-07
2.8756004e-10
-9.2164868e-08
1.8472757e-10
-6.141206e-08
1.1743161e-10
-4.0726873e-08
7.3783019e-11
-2.6891675e-08
4.5617232e-11
-1.7652184e-08
2.7556304e-11
-1.1484787e-08
1.6098956e-11
-7.3738388e-09
8.9551032e-12
-4.6425675e-09
4.6210207e-12
-2.8381437e-09
2.1108464e-12
-1.6562575e-09
7.6697816e-13
-8.9174848e-10
1.5825368e-13
-4.060497e-10
-1.0553315e-10
-1.3250952e-08
-4.3292204e-05
-2.1588496e-08
-3.5628263e-05
-1.8627106e-08
-2.8131097e-05
-7.3976022e-09
-2.050048e-05
2.5422363e-09
-1.3971167e-05
7.4950305e-09
-9.1950063e-06
8.7508109e-09
-6.0677515e-06
8.0809396e-09
-4.0726579e-06
6.6005366e-09
-2.8100919e-06
5.0438781e-09
-1.9678819e-06
3.7501828e-09
-1.3579796e-06
2.757557e-09
-9.2075226e-07
2.0143664e-09
-6.3082883e-07
1.4358372e-09
-4.3625517e-07
9.9004209e-10
-2.9957776e-07
6.6661936e-10
-2.0350227e-07
4.4082629e-10
-1.372651e-07
2.8692449e-10
-9.2010996e-08
1.8435559e-10
-6.1309504e-08
1.1722146e-10
-4.0659764e-08
7.3675949e-11
-2.684814e-08
4.5563401e-11
-1.762409e-08
2.7541584e-11
-1.1466772e-08
1.6099866e-11
-7.3624092e-09
8.9661699e-12
-4.6354401e-09
4.6371724e-12
-2.8338202e-09
2.1217209e-12
-1.6537499e-09
7.717909e-13
-8.9040505e-10
1.5782637e-13
-4.0544034e-10
-1.0537532e-10
-1.3228202e-08
-4.3278976e-05
-2.158817e-08
-3.5619903e-05
-1.8704568e-08
-2.8133981e-05
-7.4893385e-09
-2.0511695e-05
2.4730493e-09
-1.398113e-05
7.4569413e-09
-9.1999902e-06
8.7275544e-09
-6.0690221e-06
8.0647791e-09
-4.0719952e-06
6.5881353e-09
-2.8086153e-06
5.0344876e-09
-1.9663282e-06
3.7431738e-09
-1.3566883e-06
2.7522445e-09
-9.1976134e-07
2.0100793e-09
-6.3008666e-07
1.4325128e-09
-4.3567762e-07
9.8755059e-10
-2.991328e-07
6.648117e-10
-2.0317954e-07
4.3956868e-10
-1.3703986e-07
2.860663e-10
-9.1857507e-08
1.8377076e-10
-6.1207212e-08
1.1683162e-10
-4.0592834e-08
7.3412753e-11
-2.6804723e-08
4.5389224e-11
-1.7596071e-08
2.7421036e-11
-1.1448805e-08
1.6019948e-11
-7.3510099e-09
8.9113359e-12
-4.6283312e-09
4.5973838e-12
-2.8295078e-09
2.10034e-12
-1.6512488e-09
7.6315638e-13
-8.89065e-10
1.5741807e-13
-4.0483257e-10
-1.0521791e-10
-1.3206685e-08
-4.3265769e-05
-2.1590117e-08
-3.561152e-05
-1.8782917e-08
-2.8136788e-05
-7.582708e-09
-2.0522895e-05
2.4030054e-09
-1.3991116e-05
7.4183695e-09
-9.2050055e-06
8.7043235e-09
-6.0703081e-06
8.048434e-09
-4.0713393e-06
6.5756431e-09
-2.8071425e-06
5.0250505e-09
-1.9647777e-06
3.7361717e-09
-1.3553994e-06
2.7469654e-09
-9.1877215e-07
2.0059448e-09
-6.2934564e-07
1.429258e-09
-4.3510094e-07
9.8506251e-10
-2.986886e-07
6.6307641e-10
-2.0285757e-07
4.3839517e-10
-1.3681518e-07
2.8529225e-10
-9.1704418e-08
1.8328614e-10
-6.1105209e-08
1.1653508e-10
-4.0526093e-08
7.3242583e-11
-2.6761434e-08
4.5294838e-11
-1.7568131e-08
2.7375677e-11
-1.1430888e-08
1.6002037e-11
-7.3396415e-09
8.9094516e-12
-4.6212415e-09
4.6057416e-12
-2.8252065e-09
2.1063592e-12
-1.6487542e-09
7.6589553e-13
-8.8772835e-10
1.5701403e-13
-4.042264e-10
-1.0506089e-10
-1.3186406e-08
-4.3252583e-05
-2.1593586e-08
-3.5603113e-05
-1.8862765e-08
-2.8139519e-05
-7.6771333e-09
-2.0534081e-05
2.3315137e-09
-1.4001124e-05
7.3792508e-09
-9.2100533e-06
8.6808124e-09
-6.0716097e-06
8.0317932e-09
-4.0706903e-06
6.5629921e-09
-2.8056737e-06
5.0154894e-09
-1.9632302e-06
3.7290476e-09
-1.354113e-06
2.7414908e-09
-9.177846e-07
2.0016413e-09
-6.2860579e-07
1.425854e-09
-4.3452516e-07
9.8259985e-10
-2.9824535e-07
6.6132026e-10
-2.025363e-07
4.3715019e-10
-1.3659101e-07
2.8445096e-10
-9.1551718e-08
1.8272947e-10
-6.1003484e-08
1.1617047e-10
-4.0459532e-08
7.299871e-11
-2.6718258e-08
4.5136073e-11
-1.7540264e-08
2.7267415e-11
-1.1413017e-08
1.5931059e-11
-7.3283022e-09
8.8620272e-12
-4.61417e-09
4.572533e-12
-2.8209161e-09
2.0886796e-12
-1.6462656e-09
7.5885817e-13
-8.8639503e-10
1.5664404e-13
-4.036217e-10
-1.0490425e-10
-1.3167546e-08
-4.3239415e-05
-2.15982e-08
-3.5594682e-05
-1.8944418e-08
-2.8142172e-05
-7.7730839e-09
-2.0545252e-05
2.2589627e-09
-1.4011156e-05
7.3397445e-09
-9.215134e-06
8.6570255e-09
-6.0729269e-06
8.0152116e-09
-4.0700485e-06
6.5504699e-09
-2.8042089e-06
5.0061005e-09
-1.9616858e-06
3.7221405e-09
-1.352829e-06
2.7362578e-09
-9.1679873e-07
1.9975158e-09
-6.2786705e-07
1.4227236e-09
-4.3395039e-07
9.8037558e-10
-2.9780301e-07
6.5976374e-10
-2.0221571e-07
4.3612683e-10
-1.3636738e-07
2.8381001e-10
-9.1399429e-08
1.8235237e-10
-6.0902039e-08
1.1595793e-10
-4.0393161e-08
7.2890111e-11
-2.6675201e-08
4.5083253e-11
-1.7512475e-08
2.725408e-11
-1.1395196e-08
1.593375e-11
-7.3169937e-09
8.87486e-12
-4.6071178e-09
4.5907462e-12
-2.8166376e-09
2.1007141e-12
-1.6437839e-09
7.6420324e-13
-8.8506539e-10
1.5622882e-13
-4.030186e-10
-1.0474802e-10
-1.3150297e-08
-4.3226265e-05
-2.1604421e-08
-3.5586228e-05
-1.9027142e-08
-2.814475e-05
-7.870137e-09
-2.0556409e-05
2.1854033e-09
-1.4021212e-05
7.2997047e-09
-9.2202484e-06
8.6330163e-09
-6.0742602e-06
7.9986712e-09
-4.0694141e-06
6.5380041e-09
-2.8027483e-06
4.9967837e-09
-1.9601446e-06
3.715294e-09
-1.3515475e-06
2.731099e-09
-9.1581454e-07
1.9933865e-09
-6.2712934e-07
1.4194824e-09
-4.333765e-07
9.778426e-10
-2.9736137e-07
6.579403e-10
-2.0189582e-07
4.3485905e-10
-1.3614431e-07
2.8293976e-10
-9.1247522e-08
1.817583e-10
-6.0800862e-08
1.1556308e-10
-4.0326974e-08
7.2622505e-11
-2.6632263e-08
4.4906242e-11
-1.7484763e-08
2.7131406e-11
-1.1377423e-08
1.5851858e-11
-7.3057161e-09
8.8185666e-12
-4.6000846e-09
4.5500603e-12
-2.8123708e-09
2.0788385e-12
-1.6413089e-09
7.5544894e-13
-8.8373936e-10
1.5580826e-13
-4.0241709e-10
-1.0459221e-10
-1.3134624e-08
-4.321313e-05
-2.1612948e-08
-3.557775e-05
-1.9110352e-08
-2.8147252e-05
-7.967785e-09
-2.0567552e-05
2.1106844e-09
-1.403129e-05
7.2594573e-09
-9.2253971e-06
8.6088001e-09
-6.0756096e-06
7.9818923e-09
-4.0687872e-06
6.5254242e-09
-2.8012918e-06
4.9874003e-09
-1.9586066e-06
3.7083491e-09
-1.3502685e-06
2.725847e-09
-9.1483205e-07
1.9892534e-09
-6.2639275e-07
1.4162213e-09
-4.3280348e-07
9.7548824e-10
-2.9692064e-07
6.5631856e-10
-2.0157666e-07
4.3375851e-10
-1.3592175e-07
2.8221839e-10
-9.1095995e-08
1.8130808e-10
-6.0699956e-08
1.1528751e-10
-4.0260964e-08
7.2464593e-11
-2.6589444e-08
4.4818163e-11
-1.7457125e-08
2.7090052e-11
-1.1359698e-08
1.5836647e-11
-7.2944685e-09
8.8178493e-12
-4.5930694e-09
4.5589837e-12
-2.8081148e-09
2.0853104e-12
-1.6388404e-09
7.583804e-13
-8.8241668e-10
1.5540316e-13
-4.0181712e-10
-1.0443681e-10
-1.3120301e-08
-4.320001e-05
-2.1623275e-08
-3.5569247e-05
-1.9194534e-08
-2.8149681e-05
-8.0669131e-09
-2.057868e-05
2.0351361e-09
-1.4041392e-05
7.2186875e-09
-9.2305807e-06
8.5846847e-09
-6.0769756e-06
7.9650094e-09
-4.0681675e-06
6.5128235e-09
-2.7998396e-06
4.9780224e-09
-1.9570718e-06
3.7013988e-09
-1.3489919e-06
2.7205369e-09
-9.138512e-07
1.9850842e-09
-6.256573e-07
1.4129677e-09
-4.3223137e-07
9.7313587e-10
-2.9648081e-07
6.546204e-10
-2.0125816e-07
4.3255685e-10
-1.3569969e-07
2.8140878e-10
-9.094485e-08
1.8077202e-10
-6.0599318e-08
1.1493368e-10
-4.0195125e-08
7.2228464e-11
-2.6546738e-08
4.4663792e-11
-1.7429558e-08
2.6984562e-11
-1.1342018e-08
1.5767441e-11
-7.2832497e-09
8.7716542e-12
-4.5860723e-09
4.5266732e-12
-2.8038695e-09
2.0680446e-12
-1.6363781e-09
7.5144844e-13
-8.8109728e-10
1.5501638e-13
-4.012187e-10
-1.0428179e-10
-1.3107261e-08
-4.3186903e-05
-2.1634673e-08
-3.5560719e-05
-1.9280358e-08
-2.8152035e-05
-8.1666627e-09
-2.0589793e-05
1.9579448e-09
-1.4051517e-05
7.1774779e-09
-9.2358002e-06
8.5601341e-09
-6.0783582e-06
7.9481112e-09
-4.0675555e-06
6.5003268e-09
-2.7983918e-06
4.9688354e-09
-1.9555403e-06
3.6947306e-09
-1.3477178e-06
2.7155447e-09
-9.1287203e-07
1.9811813e-09
-6.2492294e-07
1.410014e-09
-4.3166022e-07
9.7092174e-10
-2.9604173e-07
6.5307504e-10
-2.0094034e-07
4.3155126e-10
-1.3547818e-07
2.807806e-10
-9.0794112e-08
1.8040791e-10
-6.0498964e-08
1.147321e-10
-4.0129478e-08
7.2131298e-11
-2.6504151e-08
4.4620598e-11
-1.7402069e-08
2.6979696e-11
-1.1324388e-08
1.5777179e-11
-7.2720619e-09
8.7904306e-12
-4.5790949e-09
4.5492453e-12
-2.7996359e-09
2.0827262e-12
-1.6339224e-09
7.5781205e-13
-8.7978149e-10
1.5458847e-13
-4.0062195e-10
-1.041272e-10
-1.3095634e-08
-4.3173807e-05
-2.1647169e-08
-3.5552168e-05
-1.9367377e-08
-2.8154315e-05
-8.2678416e-09
-2.0600893e-05
1.8799832e-09
-1.4061665e-05
7.135746e-09
-9.241056e-06
8.5353256e-09
-6.0797578e-06
7.9312281e-09
-4.0669514e-06
6.4878421e-09
-2.7969484e-06
4.959677e-09
-1.9540121e-06
3.688064e-09
-1.3464462e-06
2.7105116e-09
-9.1189449e-07
1.9771361e-09
-6.2418957e-07
1.4067919e-09
-4.310899e-07
9.6849087e-10
-2.9560344e-07
6.5135198e-10
-2.0062322e-07
4.3034886e-10
-1.3525719e-07
2.7995044e-10
-9.0643731e-08
1.79838e-10
-6.039886e-08
1.1435313e-10
-4.0064006e-08
7.1870156e-11
-2.6461676e-08
4.4446225e-11
-1.7374653e-08
2.6856288e-11
-1.1306803e-08
1.5692417e-11
-7.260903e-09
8.7310821e-12
-4.5721355e-09
4.5051964e-12
-2.7954134e-09
2.0586061e-12
-1.6314731e-09
7.481141e-13
-8.7846911e-10
1.5420399e-13
-4.000267e-10
-1.03973e-10
-1.3085524e-08
-4.3160721e-05
-2.1661385e-08
-3.5543592e-05
-1.9454941e-08
-2.8156522e-05