/*--------------------------------*- C++ -*----------------------------------*\
| =========                 |                                                 |
| \\      /  F ield         | OpenFOAM: The Open Source CFD Toolbox           |
|  \\    /   O peration     | Version:  v2012                                 |
|   \\  /    A nd           | Website:  www.openfoam.com                      |
|    \\/     M anipulation  |                                                 |
\*---------------------------------------------------------------------------*/
FoamFile
{
    version     2.0;
    format      ascii;
    class       volScalarField;
    location    "800";
    object      rho;
}
// * * * * * * * * * * * * * * * * * * * * * * * * * * * * * * * * * * * * * //

dimensions      [1 -3 0 0 0 0 0];


internalField   nonuniform List<scalar> 
24000
(
22.126791
21.686399
20.012448
16.789703
13.111206
9.8966584
7.519336
5.8501163
4.7338134
3.9275696
3.2500689
2.7042354
2.3307351
2.0742662
1.880535
1.7308269
1.617329
1.5311636
1.4652725
1.4146751
1.3755973
1.3451133
1.3210738
1.3019321
1.2865684
1.2741583
1.2640837
1.2558733
1.2491622
1.2436644
22.128755
21.690851
20.025826
16.809701
13.129373
9.9093545
7.5269768
5.8539828
4.7350371
3.9273955
3.2494346
2.7034639
2.3298937
2.0733187
1.8795395
1.7298722
1.6164409
1.5303478
1.464528
1.4139931
1.3749669
1.3445234
1.3205157
1.3013988
1.2860543
1.2736594
1.2635968
1.2553957
1.248692
1.2431999
22.130755
21.695364
20.03941
16.829807
13.147705
9.9218746
7.5341784
5.8573174
4.7357342
3.9267869
3.2484518
2.7023626
2.3287714
2.0721509
1.8783757
1.7287877
1.6154575
1.52946
1.4637255
1.4132641
1.374297
1.3438994
1.319927
1.3008371
1.2855136
1.2731347
1.2630846
1.2548934
1.2481973
1.2427112
22.132755
21.699896
20.052977
16.849873
13.166046
9.9342651
7.541184
5.8604751
4.7363431
3.9261302
3.2474063
2.7012285
2.3276576
2.0710241
1.877281
1.7278008
1.6145896
1.5286961
1.4630469
1.4126532
1.3737367
1.3433771
1.3194333
1.3003654
1.2850588
1.2726933
1.2626536
1.2544707
1.247781
1.2423001
22.134753
21.704418
20.066509
16.869924
13.184417
9.9465932
7.5480835
5.8635274
4.7368702
3.9254043
3.2462862
2.7000282
2.3264934
2.0698588
1.8761531
1.7267824
1.6136878
1.527896
1.4623316
1.4120058
1.3731416
1.3428217
1.3189082
1.2998636
1.2845752
1.2722239
1.2621954
1.2540213
1.2473384
1.241863
22.136746
21.708918
20.079993
16.889961
13.202827
9.9588999
7.5549345
5.8665235
4.7373533
3.9246412
3.245123
2.6987887
2.3252997
2.0686713
1.8750095
1.7257507
1.6127762
1.5270882
1.4616104
1.4113536
1.3725425
1.3422627
1.3183797
1.2993585
1.2840883
1.2717513
1.261734
1.2535685
1.2468928
1.2414227
22.138732
21.713389
20.093421
16.91
13.221279
9.971209
7.561763
5.8694888
4.7378095
3.9238537
3.2439312
2.6975219
2.3240841
2.0674666
1.8738525
1.7247077
1.6118552
1.5262729
1.4608821
1.4106952
1.3719378
1.3416985
1.3178462
1.2988487
1.2835967
1.271274
1.261268
1.2531114
1.2464427
1.2409781
22.140712
21.71783
20.106792
16.930034
13.239773
9.9835364
7.5685892
5.8724393
4.7382507
3.9230519
3.2427217
2.6962377
2.3228545
2.0662525
1.8726866
1.7236589
1.6109291
1.5254534
1.4601504
1.410034
1.3713302
1.3411316
1.3173103
1.2983365
1.283103
1.2707945
1.2607998
1.2526521
1.2459905
1.2405313
22.142685
21.722237
20.120105
16.950078
13.258315
9.9958899
7.5754226
5.8753856
4.7386845
3.9222422
3.2415019
2.6949432
2.3216171
2.0650318
1.8715172
1.7226069
1.6100008
1.5246318
1.4594175
1.4093716
1.3707215
1.3405636
1.3167733
1.2978232
1.2826081
1.2703141
1.2603306
1.252192
1.2455371
1.2400835
22.14465
21.726611
20.133363
16.970123
13.2769
10.008278
7.5822697
5.8783345
4.7391159
3.921429
3.2402766
2.693643
2.3203751
2.0638082
1.8703462
1.7215532
1.6090716
1.5238097
1.458684
1.4087085
1.3701126
1.3399954
1.3162359
1.2973095
1.2821129
1.2698333
1.2598611
1.2517314
1.2450834
1.2396354
22.146608
21.730951
20.146565
16.99018
13.295535
10.020703
7.5891378
5.8812893
4.7395483
3.9206154
3.2390494
2.6923401
2.3191306
2.062583
1.8691738
1.7204999
1.6081427
1.5229884
1.4579508
1.4080459
1.369504
1.3394275
1.3156988
1.2967961
1.2816178
1.2693527
1.2593919
1.2512709
1.2446301
1.2391876
22.148559
21.735257
20.159712
17.010242
13.314214
10.033171
7.5960268
5.8842533
4.739984
3.919803
3.2378225
2.6910365
2.3178853
2.0613584
1.8680024
1.7194478
1.6072148
1.5221678
1.4572186
1.4073843
1.3688961
1.3388602
1.3151624
1.2962834
1.2811234
1.2688725
1.258923
1.2508109
1.2441772
1.2387401
22.150503
21.739528
20.172801
17.030315
13.332941
10.045681
7.6029418
5.887229
4.7404246
3.9189934
3.2365975
2.6897339
2.3166412
2.0601348
1.8668336
1.718397
1.6062887
1.5213486
1.4564882
1.4067241
1.3682893
1.338294
1.3146269
1.2957715
1.2806298
1.2683931
1.2584548
1.2503516
1.2437249
1.2382932
22.152439
21.743765
20.185836
17.050398
13.351715
10.058238
7.6098833
5.8902183
4.7408713
3.9181879
3.2353754
2.6884333
2.3153985
2.058912
1.8656657
1.7173483
1.6053645
1.5205315
1.4557592
1.4060651
1.3676839
1.3377289
1.3140925
1.2952606
1.2801372
1.2679148
1.2579876
1.2498933
1.2432734
1.2378472
22.15437
21.747969
20.198819
17.070489
13.370535
10.070841
7.6168518
5.8932216
4.741325
3.9173872
3.234157
2.6871353
2.3141573
2.0576923
1.8644998
1.7163023
1.6044422
1.5197165
1.4550317
1.4054077
1.3670801
1.3371652
1.3135593
1.2947509
1.2796457
1.2674375
1.2575215
1.249436
1.2428229
1.2374023
22.156293
21.752141
20.211745
17.090593
13.389404
10.083493
7.6238506
5.8962393
4.7417862
3.9165919
3.232943
2.6858404
2.3129185
2.0564745
1.863338
1.7152585
1.6035226
1.5189032
1.4543062
1.404752
1.3664776
1.3366029
1.3130274
1.2942424
1.2791552
1.2669614
1.2570565
1.2489798
1.2423736
1.2369584
22.15821
21.756281
20.224616
17.110703
13.408318
10.096193
7.6308773
5.8992721
4.7422555
3.9158024
3.2317338
2.684549
2.3116828
2.0552591
1.8621779
1.7142172
1.6026053
1.5180922
1.4535831
1.4040983
1.3658766
1.336042
1.312497
1.2937353
1.2786661
1.2664863
1.2565927
1.2485245
1.2419255
1.2365157
22.160122
21.76039
20.237431
17.130826
13.427282
10.108944
7.6379351
5.9023212
4.7427332
3.915019
3.2305297
2.6832615
2.3104498
2.0540464
1.8610201
1.7131791
1.6016904
1.5172838
1.4528618
1.4034463
1.3652774
1.3354827
1.3119679
1.2932294
1.2781783
1.2660125
1.2561299
1.2480704
1.2414784
1.2360739
22.162027
21.764468
20.250195
17.150954
13.44629
10.121745
7.645023
5.9053869
4.7432197
3.9142418
3.229331
2.681978
2.3092193
2.0528369
1.8598667
1.7121438
1.6007782
1.5164776
1.4521424
1.402796
1.36468
1.3349249
1.3114403
1.2927249
1.2776918
1.26554
1.2556683
1.2476177
1.2410324
1.2356332
22.163926
21.768517
20.262904
17.171094
13.465347
10.134598
7.652141
5.9084683
4.7437151
3.9134712
3.2281377
2.6806986
2.3079923
2.0516303
1.8587158
1.7111109
1.5998686
1.5156734
1.4514251
1.4021476
1.3640842
1.3343687
1.310914
1.2922217
1.2772066
1.2650688
1.2552081
1.2471662
1.2405875
1.2351938
22.165819
21.772536
20.275557
17.191239
13.484451
10.147503
7.6592915
5.911566
4.7442197
3.9127072
3.2269501
2.6794234
2.3067688
2.050426
1.8575671
1.7100813
1.5989617
1.5148718
1.4507104
1.4015014
1.36349
1.3338141
1.3103893
1.29172
1.2767226
1.2645989
1.2547492
1.2467159
1.240144
1.2347557
22.167708
21.776527
20.288154
17.211394
13.5036
10.16046
7.6664717
5.9146807
4.7447336
3.9119499
3.2257683
2.6781527
2.3055482
2.0492255
1.8564225
1.7090548
1.5980573
1.5140729
1.4499975
1.400857
1.3628976
1.3332609
1.3098661
1.2912197
1.27624
1.2641302
1.2542915
1.2462667
1.2397017
1.2343188
22.169591
21.78049
20.300699
17.231555
13.522798
10.17347
7.6736846
5.9178127
4.7452569
3.9111997
3.2245924
2.6768865
2.3043306
2.0480279
1.8552811
1.7080308
1.5971557
1.5132761
1.4492865
1.4002143
1.362307
1.3327094
1.3093444
1.2907208
1.2757589
1.2636628
1.253835
1.2458187
1.2392607
1.2338829
22.171469
21.784426
20.313189
17.251723
13.542039
10.186534
7.6809284
5.9209612
4.7457897
3.9104565
3.2234225
2.6756247
2.3031168
2.046833
1.8541419
1.7070099
1.5962569
1.5124815
1.4485778
1.3995735
1.3617182
1.3321595
1.3088241
1.2902233
1.275279
1.2631967
1.2533796
1.245372
1.2388207
1.2334482
22.173342
21.788334
20.325624
17.271899
13.561329
10.199652
7.6882038
5.9241262
4.7463321
3.9097206
3.2222586
2.6743673
2.3019065
2.0456413
1.8530061
1.7059923
1.5953604
1.5116896
1.4478716
1.3989348
1.3611309
1.3316113
1.3083053
1.2897271
1.2748006
1.262732
1.2529257
1.2449267
1.2383819
1.2330146
22.17521
21.792216
20.338003
17.292078
13.580664
10.212824
7.695512
5.9273083
4.7468842
3.9089921
3.2211007
2.6731145
2.3006993
2.0444529
1.8518744
1.7049773
1.5944667
1.5109002
1.4471672
1.398298
1.3605453
1.3310645
1.307788
1.2892324
1.2743233
1.2622686
1.2524731
1.2444825
1.2379442
1.2325824
22.177074
21.796072
20.350328
17.312264
13.600044
10.226052
7.7028509
5.930508
4.7474459
3.9082709
3.2199488
2.6718663
2.299495
2.0432675
1.8507447
1.7039651
1.5935757
1.5101127
1.4464648
1.3976629
1.3599615
1.3305193
1.3072722
1.2887391
1.2738473
1.2618063
1.2520217
1.2440395
1.237508
1.2321515
22.178934
21.799901
20.362601
17.332452
13.619471
10.239335
7.7102234
5.9337244
4.7480175
3.9075572
3.218803
2.6706226
2.2982947
2.0420846
1.8496177
1.702956
1.5926873
1.5093275
1.4457644
1.3970296
1.3593794
1.3299756
1.3067577
1.2882471
1.2733728
1.2613453
1.2515714
1.2435976
1.2370729
1.2317216
22.18079
21.803705
20.37482
17.352647
13.638941
10.252675
7.7176268
5.9369573
4.7485989
3.9068509
3.2176634
2.6693835
2.2970978
2.0409054
1.8484955
1.7019499
1.5918013
1.5085451
1.4450666
1.3963983
1.358799
1.3294335
1.3062448
1.2877565
1.2728996
1.2608856
1.2511223
1.2431569
1.236639
1.2312927
22.182643
21.807483
20.386982
17.372843
13.658458
10.266071
7.7250631
5.9402074
4.7491902
3.9061521
3.21653
2.6681487
2.2959039
2.0397293
1.8473753
1.7009463
1.5909181
1.5077649
1.4443705
1.395769
1.3582201
1.328893
1.3057331
1.2872671
1.2724277
1.2604272
1.2506744
1.2427175
1.236206
1.2308649
22.184491
21.811238
20.399089
17.393044
13.678016
10.279526
7.732532
5.9434751
4.7497915
3.9054609
3.2154026
2.6669186
2.2947131
2.0385556
1.8462573
1.6999457
1.5900375
1.5069867
1.4436763
1.3951413
1.3576428
1.3283538
1.3052229
1.2867792
1.2719569
1.25997
1.2502278
1.2422793
1.2357743
1.2304384
22.186335
21.814968
20.411145
17.413247
13.69762
10.293037
7.7400325
5.9467597
4.7504029
3.9047772
3.2142812
2.665693
2.2935261
2.0373852
1.8451439
1.6989483
1.5891592
1.5062107
1.4429841
1.3945153
1.3570673
1.3278162
1.3047143
1.2862926
1.2714874
1.259514
1.2497825
1.2418423
1.2353437
1.2300131
22.188176
21.818675
20.423148
17.433451
13.717266
10.306608
7.7475671
5.9500608
4.7510243
3.9041011
3.213166
2.6644718
2.2923425
2.036218
1.8440332
1.6979532
1.5882835
1.5054374
1.4422944
1.3938912
1.3564936
1.3272801
1.3042069
1.2858074
1.2710193
1.2590592
1.2493383
1.2414063
1.2349145
1.229589
22.190014
21.82236
20.435096
17.453659
13.736955
10.320238
7.7551329
5.9533791
4.7516558
3.9034327
3.2120569
2.663255
2.2911617
2.0350537
1.8429244
1.696961
1.5874104
1.5046662
1.4416064
1.393269
1.3559212
1.3267455
1.3037009
1.2853234
1.2705524
1.2586055
1.2488951
1.2409714
1.2344863
1.2291658
22.191849
21.826023
20.44699
17.473866
13.756687
10.333928
7.7627329
5.9567151
4.7522975
3.902772
3.2109539
2.6620426
2.289984
2.0338917
1.8418192
1.6959719
1.5865398
1.5038969
1.4409201
1.3926485
1.3553503
1.3262124
1.3031962
1.2848406
1.2700867
1.2581532
1.2484531
1.2405377
1.2340591
1.2287437
22.193681
21.829664
20.45883
17.494076
13.776457
10.347678
7.7703648
5.960068
4.7529495
3.9021193
3.2098571
2.6608347
2.28881
2.0327332
1.8407178
1.6949853
1.5856714
1.5031298
1.4402358
1.3920296
1.3547811
1.3256806
1.3026929
1.2843591
1.2696222
1.257702
1.2480123
1.2401052
1.2336328
1.2283226
22.195511
21.833285
20.470621
17.514284
13.796272
10.36149
7.7780303
5.9634376
4.7536118
3.9014744
3.2087662
2.6596312
2.2876392
2.0315778
1.8396181
1.6940012
1.5848057
1.5023654
1.4395539
1.3914123
1.3542136
1.3251503
1.302191
1.283879
1.2691589
1.2572521
1.2475728
1.2396739
1.2332078
1.2279027
22.197338
21.836887
20.482359
17.534494
13.816123
10.375365
7.7857291
5.9668244
4.7542844
3.9008375
3.2076814
2.6584319
2.2864712
2.0304248
1.8385209
1.6930201
1.5839425
1.5016029
1.4388737
1.390797
1.3536475
1.3246213
1.3016903
1.2834001
1.2686967
1.2568031
1.2471343
1.2392435
1.2327839
1.2274839
22.199163
21.840469
20.494044
17.554703
13.836016
10.389301
7.7934605
5.9702292
4.7549675
3.9002084
3.2066026
2.6572369
2.2853062
2.0292746
1.8374284
1.6920419
1.5830814
1.5008422
1.4381951
1.3901835
1.3530829
1.3240938
1.301191
1.2829224
1.2682359
1.2563552
1.2466968
1.2388141
1.2323612
1.2270662
22.200986
21.844032
20.505674
17.574911
13.855947
10.403303
7.8012265
5.973651
4.7556611
3.8995872
3.2055299
2.6560463
2.2841448
2.0281275
1.8363378
1.6910658
1.5822227
1.5000838
1.4375184
1.3895714
1.3525197
1.3235678
1.3006929
1.2824459
1.2677762
1.2559085
1.2462604
1.2383858
1.2319394
1.2266494
22.202806
21.847577
20.517256
17.595119
13.875914
10.417368
7.8090247
5.9770897
4.7563652
3.898974
3.2044633
2.6548599
2.2829865
2.0269834
1.8352491
1.6900927
1.5813667
1.499328
1.4368441
1.3889609
1.3519582
1.323043
1.3001961
1.2819706
1.2673177
1.2554632
1.2458251
1.2379587
1.2315186
1.2262335
22.204625
21.851104
20.528788
17.615325
13.89592
10.431499
7.8168581
5.9805459
4.7570798
3.8983688
3.2034028
2.6536777
2.2818309
2.0258414
1.8341647
1.6891224
1.580513
1.4985738
1.4361714
1.388352
1.3513982
1.3225196
1.2997007
1.2814965
1.2668601
1.2550188
1.245391
1.2375327
1.2310987
1.2258186
22.206442
21.854613
20.540269
17.635532
13.915959
10.445695
7.824724
5.9840204
4.757805
3.8977715
3.2023481
2.6524996
2.2806781
2.0247026
1.833083
1.6881544
1.5796613
1.4978215
1.4355003
1.3877451
1.3508396
1.3219975
1.2992064
1.2810237
1.2664038
1.2545755
1.244958
1.2371077
1.2306799
1.225405
22.208257
21.858104
20.551697
17.655735
13.936036
10.459959
7.8326247
5.987512
4.7585407
3.8971822
3.2012994
2.6513256
2.2795288
2.0235666
1.8320029
1.687189
1.578812
1.4970714
1.434831
1.3871397
1.3502823
1.3214768
1.2987134
1.280552
1.2659486
1.2541331
1.244526
1.2366836
1.2302623
1.2249924
22.210071
21.861579
20.563074
17.675938
13.956144
10.474291
7.840559
5.9910209
4.7592871
3.8966008
3.2002567
2.6501558
2.2783824
2.0224332
1.8309258
1.6862263
1.5779654
1.4963239
1.4341638
1.3865357
1.3497266
1.3209575
1.2982216
1.2800814
1.2654947
1.2536919
1.2440948
1.2362604
1.2298457
1.2245807
22.211883
21.865036
20.574403
17.696138
13.976287
10.488691
7.8485272
5.994548
4.7600441
3.8960275
3.1992199
2.64899
2.2772385
2.0213021
1.8298529
1.6852663
1.5771208
1.4955779
1.4334984
1.3859331
1.3491722
1.3204392
1.2977309
1.2796118
1.2650417
1.2532518
1.2436646
1.2358382
1.2294299
1.2241697
22.213695
21.868478
20.585685
17.716335
13.996462
10.503161
7.8565304
5.9980936
4.7608118
3.8954622
3.1981891
2.6478282
2.2760973
2.0201739
1.8287814
1.6843085
1.5762782
1.4948337
1.4328346
1.3853325
1.3486194
1.3199224
1.2972416
1.2791436
1.2645897
1.2528128
1.2432357
1.2354173
1.229015
1.2237597
22.215505
21.871904
20.596918
17.736532
14.016667
10.5177
7.8645668
6.0016568
4.7615902
3.8949051
3.1971643
2.6466702
2.2749594
2.0190486
1.8277118
1.6833533
1.5754381
1.4940916
1.4321724
1.3847335
1.3480679
1.3194068
1.2967534
1.2786765
1.2641387
1.2523748
1.2428078
1.2349974
1.228601
1.2233507
22.217314
21.875315
20.608099
17.756724
14.036905
10.532311
7.8726389
6.0052379
4.7623796
3.894356
3.1961454
2.6455162
2.2738243
2.0179252
1.8266468
1.6824009
1.5746005
1.4933521
1.4315121
1.3841358
1.3475177
1.3188927
1.2962664
1.2782105
1.263689
1.2519377
1.2423809
1.2345783
1.2281882
1.2229429
22.219123
21.878711
20.619231
17.776916
14.057169
10.546992
7.8807441
6.0088378
4.7631797
3.8938151
3.1951322
2.6443661
2.2726914
2.0168046
1.8255838
1.6814506
1.5737646
1.4926139
1.4308538
1.3835394
1.3469688
1.3183796
1.2957804
1.2777454
1.2632403
1.2515015
1.2419547
1.23416
1.2277763
1.2225359
22.220931
21.882094
20.630318
17.797104
14.077466
10.561745
7.8888851
6.0124568
4.7639908
3.8932822
3.1941249
2.6432197
2.2715611
2.0156867
1.8245223
1.6805028
1.5729309
1.4918776
1.4301969
1.3829447
1.3464214
1.3178677
1.2952957
1.2772814
1.2627926
1.2510664
1.2415295
1.2337426
1.2273654
1.2221298
22.222739
21.885462
20.641359
17.81729
14.09779
10.576569
7.8970595
6.0160939
4.7648129
3.8927574
3.1931235
2.6420771
2.2704338
2.0145711
1.8234639
1.6795574
1.5720997
1.4911433
1.4295415
1.3823517
1.3458754
1.3173571
1.2948121
1.2768185
1.2623459
1.2506324
1.2411052
1.2333262
1.2269552
1.2217244
22.224546
21.888818
20.652352
17.837473
14.118144
10.591463
7.9052696
6.0197499
4.7656461
3.8922406
3.192128
2.640938
2.2693091
2.0134575
1.8224093
1.6786148
1.5712707
1.4904114
1.4288879
1.3817602
1.3453306
1.3168477
1.2943297
1.2763569
1.2619001
1.2501994
1.2406821
1.232911
1.2265459
1.2213199
22.226354
21.892161
20.663295
17.85765
14.138529
10.606427
7.9135137
6.0234258
4.7664903
3.8917318
3.1911383
2.6398027
2.2681865
2.0123466
1.8213558
1.677674
1.5704434
1.489681
1.4282363
1.3811697
1.344787
1.3163395
1.2938483
1.2758961
1.2614553
1.2497672
1.2402599
1.2324966
1.2261373
1.2209162
22.228162
21.895493
20.674191
17.877829
14.158945
10.621458
7.921793
6.027121
4.7673458
3.891231
3.1901545
2.638671
2.2670661
2.0112383
1.8203041
1.6767358
1.5696183
1.4889521
1.4275863
1.3805809
1.3442449
1.3158326
1.293368
1.2754365
1.2610117
1.2493359
1.2398387
1.232083
1.22573
1.2205138
22.22997
21.898813
20.685043
17.898
14.179401
10.636551
7.9301076
6.0308354
4.7682124
3.8907381
3.1891764
2.6375427
2.2659486
2.0101318
1.8192569
1.6758001
1.5687957
1.4882253
1.4269375
1.3799936
1.343704
1.3153267
1.2928887
1.2749777
1.260569
1.2489055
1.2394181
1.2316702
1.2253235
1.2201121
22.231779
21.902122
20.695852
17.918171
14.199898
10.651701
7.938457
6.0345698
4.7690901
3.8902532
3.188204
2.6364179
2.2648334
2.0090275
1.8182115
1.6748666
1.5679751
1.487501
1.4262903
1.3794079
1.3431645
1.314822
1.2924107
1.2745199
1.2601273
1.2484762
1.2389984
1.2312582
1.2249179
1.2197112
22.233589
21.90542
20.706614
17.938336
14.220442
10.666907
7.9468428
6.038325
4.769979
3.8897761
3.1872374
2.6352964
2.26372
2.0079257
1.8171673
1.6739353
1.5671561
1.4867779
1.4256451
1.3788234
1.3426261
1.3143184
1.2919336
1.2740633
1.2596863
1.2480478
1.2385796
1.2308472
1.2245129
1.2193109
22.235399
21.908707
20.717327
17.958498
14.241028
10.68217
7.9552637
6.0420999
4.7708791
3.8893069
3.1862765
2.6341783
2.2626086
2.0068261
1.8161261
1.6730062
1.5663393
1.4860565
1.4250017
1.3782401
1.3420889
1.3138161
1.2914577
1.2736077
1.2592463
1.2476204
1.238162
1.2304373
1.2241087
1.2189114
22.237211
21.911984
20.727995
17.978656
14.261657
10.69749
7.9637221
6.0458951
4.7717904
3.8888455
3.1853214
2.6330635
2.2614998
2.0057282
1.8150885
1.6720799
1.565525
1.4853369
1.4243594
1.3776583
1.341553
1.3133148
1.2909827
1.2731531
1.2588073
1.2471938
1.2377452
1.2300281
1.2237053
1.2185129
22.239023
21.915251
20.738619
17.998806
14.282331
10.712869
7.9722159
6.0497115
4.7727132
3.8883919
3.1843719
2.6319518
2.260393
2.0046326
1.814052
1.6711553
1.5647125
1.4846198
1.4237186
1.3770782
1.3410185
1.3128147
1.2905087
1.2726993
1.2583694
1.2467679
1.2373292
1.2296197
1.223303
1.2181155
22.240838
21.918507
20.749202
18.018955
14.303044
10.728304
7.980748
6.0535493
4.7736475
3.8879462
3.183428
2.6308433
2.259288
2.0035393
1.8130168
1.6702331
1.5639016
1.483904
1.4230795
1.3764994
1.3404852
1.3123156
1.2900358
1.2722464
1.2579324
1.2463429
1.2369138
1.2292119
1.2229016
1.2177187
22.242654
21.921753
20.75974
18.039093
14.323804
10.743798
7.9893162
6.0574076
4.7745934
3.8875082
3.1824895
2.6297378
2.2581847
2.002448
1.8119862
1.6693132
1.563093
1.4831896
1.4224424
1.3759217
1.3399529
1.3118176
1.2895641
1.2717946
1.2574962
1.245919
1.2364993
1.228805
1.2225009
1.2173227
22.244472
21.92499
20.77023
18.059229
14.344603
10.75935
7.9979234
6.0612875
4.7755512
3.8870781
3.1815564
2.6286355
2.2570837
2.0013582
1.8109572
1.6683956
1.5622867
1.4824771
1.4218065
1.3753453
1.3394219
1.3113208
1.2890932
1.2713438
1.2570607
1.245496
1.2360857
1.2283991
1.2221008
1.2169272
22.246292
21.928217
20.780674
18.079355
14.365447
10.77496
8.0065675
6.0651899
4.776521
3.8866556
3.1806287
2.6275361
2.2559848
2.0002709
1.8099295
1.66748
1.5614821
1.481767
1.4211719
1.3747705
1.3388921
1.3108252
1.2886234
1.270894
1.2566262
1.2450739
1.2356732
1.2279941
1.2217015
1.2165326
22.248113
21.931435
20.791075
18.099475
14.386331
10.790629
8.0152511
6.0691138
4.777503
3.8862409
3.179706
2.6264397
2.2548875
1.9991858
1.8089042
1.6665665
1.5606791
1.4810583
1.4205388
1.3741971
1.3383635
1.3103304
1.2881544
1.270445
1.2561928
1.2446524
1.2352615
1.2275899
1.2213029
1.2161388
22.249936
21.934644
20.801436
18.119589
14.407258
10.806357
8.0239724
6.0730597
4.7784975
3.885834
3.1787885
2.6253462
2.253792
1.9981025
1.8078828
1.6656556
1.5598785
1.4803509
1.4199077
1.3736249
1.3378362
1.3098369
1.2876865
1.2699969
1.2557603
1.2442316
1.2348505
1.2271863
1.2209054
1.2157461
22.251761
21.937845
20.811754
18.13969
14.428228
10.822143
8.0327339
6.0770287
4.7795043
3.8854348
3.1778758
2.6242555
2.2526987
1.997021
1.8068624
1.6647465
1.55908
1.4796452
1.419278
1.3730538
1.3373099
1.3093442
1.2872197
1.2695496
1.2553286
1.2438118
1.2344401
1.2267834
1.2205088
1.2153541
22.253589
21.941038
20.822025
18.159788
14.449238
10.83799
8.041534
6.0810205
4.7805236
3.8850434
3.1769678
2.6231677
2.2516075
1.9959418
1.8058432
1.6638396
1.5582832
1.478942
1.4186495
1.3724842
1.3367848
1.3088528
1.2867539
1.2691036
1.2548977
1.2433931
1.2340305
1.2263813
1.2201129
1.2149627
22.255419
21.944223
20.83225
18.179871
14.470293
10.853896
8.0503744
6.0850347
4.7815555
3.8846597
3.1760645
2.6220827
2.2505182
1.9948648
1.8048281
1.6629347
1.5574878
1.4782402
1.4180223
1.3719159
1.3362608
1.3083625
1.286289
1.2686583
1.2544675
1.2429752
1.2336219
1.2259802
1.2197175
1.2145719
22.257251
21.9474
20.842431
18.199948
14.491387
10.869861
8.0592546
6.0890723
4.7826001
3.8842837
3.1751657
2.6210005
2.2494305
1.9937893
1.8038151
1.6620323
1.5566949
1.4775396
1.4173969
1.3713491
1.3357381
1.3078731
1.285825
1.268214
1.2540382
1.2425581
1.2332142
1.22558
1.2193228
1.2141818
22.259087
21.950571
20.852571
18.220013
14.512526
10.885887
8.0681755
6.0931342
4.7836575
3.8839154
3.1742716
2.6199209
2.2483448
1.9927158
1.802803
1.6611316
1.555904
1.4768405
1.4167733
1.3707833
1.3352166
1.3073847
1.2853618
1.2677705
1.2536101
1.2421415
1.2328074
1.2251805
1.2189288
1.2137926
22.260926
21.953735
20.862671
18.240065
14.533705
10.901972
8.0771371
6.0972189
4.7847278
3.8835549
3.173382
2.618844
2.2472613
1.9916445
1.8017927
1.6602331
1.5551147
1.4761439
1.4161508
1.3702187
1.3346961
1.3068974
1.2848999
1.2673278
1.2531828
1.2417258
1.2324012
1.2247816
1.218536
1.2134044
22.262768
21.956892
20.872726
18.260109
14.554927
10.918119
8.0861399
6.1013275
4.7858113
3.883202
3.172497
2.6177699
2.2461796
1.9905752
1.8007867
1.6593365
1.5543267
1.4754487
1.4155293
1.3696553
1.3341765
1.3064109
1.2844388
1.2668859
1.2527562
1.2413109
1.2319955
1.2243833
1.2181439
1.2130169
22.264613
21.960044
20.882735
18.280135
14.576193
10.934325
8.0951843
6.1054612
4.7869079
3.8828569
3.1716165
2.6166984
2.2450994
1.9895072
1.7997817
1.6584422
1.5535411
1.4747546
1.4149094
1.3690934
1.3336582
1.3059257
1.2839786
1.2664452
1.2523303
1.2408971
1.2315906
1.2239858
1.2177525
1.2126299
22.266461
21.963188
20.892698
18.300153
14.597498
10.950593
8.1042703
6.1096188
4.788018
3.8825196
3.1707404
2.6156296
2.2440211
1.9884412
1.7987776
1.6575496
1.5527576
1.474062
1.4142914
1.3685329
1.333141
1.3054414
1.2835193
1.2660053
1.2519051
1.2404841
1.2311867
1.2235893
1.2173616
1.2122435
22.268312
21.966327
20.902619
18.320153
14.618849
10.966922
8.1133986
6.1138007
4.7891414
3.8821899
3.1698687
2.6145632
2.2429449
1.9873774
1.7977766
1.6566589
1.5519753
1.4733715
1.4136747
1.3679733
1.3326251
1.3049581
1.2830609
1.2655663
1.251481
1.2400717
1.2307838
1.2231937
1.2169713
1.2118578
22.270167
21.969461
20.912499
18.34014
14.640241
10.983311
8.1225692
6.1180081
4.7902785
3.8818681
3.1690013
2.6134994
2.2418703
1.9863151
1.7967783
1.6557704
1.5511944
1.4726827
1.4130588
1.3674146
1.3321098
1.3044756
1.2826032
1.2651278
1.2510577
1.2396598
1.2303815
1.2227986
1.2165817
1.2114728
22.272024
21.972588
20.922339
18.360112
14.661676
10.999763
8.1317828
6.1222408
4.7914288
3.881554
3.1681383
2.6124382
2.2407972
1.9852542
1.7957809
1.6548837
1.5504159
1.471995
1.4124442
1.3668574
1.3315958
1.3039941
1.2821468
1.2646901
1.2506353
1.2392487
1.2299797
1.2224041
1.2161931
1.2110889
22.273885
21.975708
20.932132
18.380064
14.683156
11.016276
8.1410393
6.1264982
4.7925927
3.8812476
3.1672798
2.6113795
2.2397258
1.9841952
1.7947844
1.6539988
1.5496392
1.4713084
1.4118313
1.3663014
1.3310827
1.3035137
1.2816911
1.2642535
1.2502135
1.2388386
1.2295786
1.2220102
1.2158054
1.2107057
22.275749
21.978823
20.94188
18.400005
14.704676
11.03285
8.1503395
6.1307817
4.7937701
3.8809491
3.1664256
2.6103233
2.2386562
1.9831383
1.7937919
1.6531155
1.5488638
1.4706237
1.4112201
1.3657468
1.3305708
1.3030342
1.2812363
1.2638178
1.2497923
1.2384294
1.2291781
1.221617
1.2154183
1.2103229
22.277616
21.981932
20.951583
18.419922
14.726243
11.049487
8.1596833
6.1350915
4.7949612
3.8806583
3.1655758
2.6092693
2.2375883
1.9820825
1.7928008
1.6522345
1.5480895
1.469941
1.4106096
1.3651928
1.3300599
1.3025554
1.2807821
1.2633828
1.2493717
1.2380208
1.2287785
1.2212247
1.2150315
1.2099406
22.279488
21.985035
20.961243
18.439824
14.747851
11.066186
8.1690714
6.1394266
4.7961662
3.8803753
3.1647303
2.6082178
2.2365217
1.9810281
1.7918104
1.6513548
1.5473175
1.4692592
1.4100001
1.3646399
1.3295498
1.3020777
1.2803287
1.2629486
1.2489523
1.2376128
1.2283799
1.2208333
1.2146453
1.2095588
22.281363
21.988135
20.970862
18.459705
14.769504
11.082947
8.1785038
6.1437883
4.7973851
3.8801001
3.163889
2.6071687
2.2354564
1.9799754
1.7908215
1.6504771
1.5465473
1.4685784
1.409392
1.3640882
1.3290407
1.3016007
1.2798764
1.2625148
1.2485336
1.2372053
1.2279819
1.2204424
1.2142597
1.2091778
22.283243
21.99123
20.980436
18.479563
14.7912
11.099772
8.187981
6.1481772
4.798618
3.8798327
3.1630519
2.6061219
2.2343928
1.9789245
1.7898364
1.6496007
1.5457781
1.4678991
1.4087857
1.3635379
1.3285327
1.3011247
1.2794249
1.262082
1.2481157
1.2367986
1.2275844
1.220052
1.2138752
1.2087979
22.285128
21.994323
20.98996
18.499405
14.81294
11.116658
8.1975032
6.1525921
4.7998652
3.879573
3.1622191
2.6050773
2.2333308
1.9778746
1.7888518
1.6487265
1.54501
1.4672219
1.4081803
1.3629885
1.3280254
1.3006496
1.2789742
1.26165
1.2476982
1.2363926
1.2271872
1.219662
1.2134913
1.2084185
22.287018
21.997413
20.999435
18.519218
14.834726
11.133609
8.2070708
6.1570342
4.8011266
3.8793212
3.1613905
2.6040348
2.2322699
1.9768259
1.7878677
1.6478535
1.5442441
1.4665456
1.4075758
1.3624398
1.3275193
1.3001752
1.2785241
1.2612188
1.2472813
1.2359875
1.2267908
1.2192727
1.213108
1.2080396
22.288912
22.000502
21.00886
18.539013
14.856554
11.150623
8.2166842
6.1615043
4.8024021
3.8790771
3.1605661
2.6029946
2.23121
1.9757789
1.7868862
1.6469821
1.5434799
1.4658702
1.4069721
1.3618921
1.3270139
1.2997017
1.2780746
1.2607884
1.2468651
1.2355831
1.2263952
1.2188843
1.2127251
1.207661
22.290812
22.003589
21.018239
18.558782
14.878428
11.167699
8.2263435
6.1660011
4.8036917
3.8788408
3.159746
2.6019565
2.2301517
1.9747332
1.7859071
1.6461122
1.5427164
1.4651959
1.40637
1.3613456
1.3265094
1.2992289
1.277626
1.2603584
1.2464498
1.2351792
1.2260005
1.2184967
1.2123426
1.2072829
22.292717
22.006676
21.027572
18.578524
14.900345
11.18484
8.2360493
6.1705256
4.8049955
3.8786122
3.15893
2.6009205
2.2290947
1.9736883
1.7849283
1.645244
1.5419539
1.4645235
1.4057692
1.3608001
1.3260056
1.2987567
1.2771782
1.2599289
1.2460352
1.2347755
1.2256062
1.2181095
1.2119606
1.2069053
22.294628
22.009763
21.036858
18.598246
14.922308
11.202045
8.2458017
6.1750788
4.8063137
3.8783915
3.158118
2.5998866
2.2280387
1.9726445
1.7839502
1.644377
1.5411935
1.4638524
1.4051693
1.3602556
1.3255027
1.2982856
1.2767311
1.2595002
1.2456212
1.2343725
1.2252124
1.2177227
1.2115794
1.2065288
22.296545
22.012851
21.046092
18.617935
14.944315
11.219313
8.2556014
6.1796595
4.8076465
3.8781785
3.1573102
2.5988545
2.2269836
1.9716023
1.7829751
1.6435113
1.5404346
1.4631819
1.4045699
1.3597116
1.3250008
1.297815
1.2762847
1.2590723
1.2452076
1.2339703
1.2248189
1.2173362
1.2111991
1.2061529
22.298468
22.01594
21.055274
18.637602
14.966367
11.236647
8.2654481
6.1842686
4.8089939
3.8779733
3.1565064
2.5978245
2.2259297
1.9705612
1.7820012
1.6426472
1.5396763
1.4625121
1.4039715
1.3591685
1.3244996
1.2973453
1.2758388
1.2586452
1.2447945
1.2335689
1.2244259
1.2169503
1.2108193
1.2057773
22.300397
22.019028
21.064405
18.657238
14.988464
11.254045
8.2753432
6.1889072
4.8103562
3.877776
3.1557066
2.5967965
2.2248771
1.9695205
1.7810275
1.6417843
1.5389187
1.4618439
1.4033746
1.3586263
1.3239989
1.2968761
1.2753933
1.2582185
1.2443818
1.233168
1.2240336
1.2165651
1.2104396
1.205402
22.302333
22.022119
21.073487
18.676843
15.010606
11.271507
8.2852858
6.1935739
4.8117334
3.8775865
3.154911
2.5957703
2.2238253
1.9684811
1.780055
1.6409228
1.5381632
1.4611774
1.4027788
1.3580853
1.3234991
1.2964074
1.2749487
1.2577922
1.2439701
1.2327674
1.2236422
1.2161807
1.2100603
1.205027
22.304276
22.02521
21.082522
18.696425
15.032793
11.289036
8.2952777
6.1982698
4.8131254
3.8774048
3.1541195
2.5947461
2.2227743
1.9674429
1.7790852
1.6400621
1.5374092
1.4605114
1.4021835
1.3575449
1.3229999
1.2959396
1.2745048
1.2573662
1.243559
1.2323671
1.2232512
1.2157968
1.2096813
1.2046524
22.306224
22.028303
21.091512
18.715969
15.055025
11.306628
8.3053178
6.2029959
4.8145322
3.8772311
3.153332
2.5937236
2.2217242
1.9664055
1.778116
1.6392032
1.5366556
1.4598458
1.4015888
1.3570051
1.3225017
1.2954725
1.2740615
1.2569412
1.2431484
1.2319672
1.2228605
1.2154131
1.209303
1.2042786
22.308178
22.031396
21.100452
18.735487
15.077302
11.324286
8.3154079
6.2077509
4.8159539
3.8770651
3.1525485
2.592703
2.2206752
1.9653686
1.7771469
1.6383451
1.5359026
1.4591812
1.400995
1.3564659
1.3220039
1.2950059
1.2736187
1.2565167
1.242738
1.2315681
1.22247
1.2150295
1.2089255
1.2039055
22.310138
22.034489
21.109342
18.754971
15.099625