/*--------------------------------*- C++ -*----------------------------------*\
| =========                 |                                                 |
| \\      /  F ield         | OpenFOAM: The Open Source CFD Toolbox           |
|  \\    /   O peration     | Version:  v2012                                 |
|   \\  /    A nd           | Website:  www.openfoam.com                      |
|    \\/     M anipulation  |                                                 |
\*---------------------------------------------------------------------------*/
FoamFile
{
    version     2.0;
    format      ascii;
    class       volScalarField;
    location    "800";
    object      T;
}
// * * * * * * * * * * * * * * * * * * * * * * * * * * * * * * * * * * * * * //

dimensions      [0 0 0 1 0 0 0];


internalField   nonuniform List<scalar> 
24000
(
42.80544
43.086622
44.284572
47.608696
54.444134
66.197293
82.99067
104.18486
127.36214
152.88594
184.7129
221.86722
257.21022
288.92883
318.72344
346.39663
370.85531
391.88966
409.67165
424.46556
436.64292
446.63696
454.84553
461.60005
467.16823
471.76523
475.56462
478.7072
481.30769
483.46002
42.804323
43.083875
44.273918
47.582587
54.398274
66.133567
82.918839
104.1221
127.33255
152.89562
184.75165
221.93464
257.3094
289.06869
318.90134
346.59803
371.06989
392.1096
409.89107
424.68132
436.85412
446.84379
455.04856
461.79994
467.36559
471.96058
475.75842
478.89981
481.49941
483.65109
42.803191
43.081087
44.263112
47.556433
54.352036
66.070994
82.851236
104.06795
127.31632
152.92177
184.80983
222.02832
257.43843
289.23827
319.10732
346.82505
371.30632
392.34836
410.12718
424.91186
437.07855
447.06274
455.26297
462.01076
467.57362
472.16647
475.96268
479.10283
481.70152
483.85253
42.802058
43.07829
44.25234
47.53039
54.305968
66.009274
82.785623
104.01675
127.30231
152.94962
184.87143
222.12443
257.56613
289.4018
319.30115
347.03222
371.51595
392.55507
410.32832
425.10677
437.26801
447.24783
455.44464
462.18974
467.75047
472.34164
476.13653
479.27566
481.87357
484.024
42.800929
43.075499
44.241612
47.504478
54.25997
65.948081
82.721131
103.96734
127.29036
152.98005
184.93717
222.22583
257.69931
289.5707
319.50048
347.24575
371.73328
392.77095
410.53977
425.31257
437.4685
447.44385
455.63704
462.37925
467.93769
472.52706
476.32055
479.45859
482.05568
484.20551
42.799803
43.072723
44.230947
47.478643
54.214054
65.887179
82.657254
103.91889
127.27951
153.01185
185.00531
222.3304
257.83571
289.74265
319.70271
347.46196
371.953
392.98888
410.75294
425.51988
437.67037
447.64119
455.83075
462.57008
468.12624
472.71382
476.5059
479.64286
482.23913
484.38835
42.798681
43.069964
44.220347
47.452918
54.168192
65.826468
82.593711
103.871
127.26934
153.04455
185.07507
222.43722
257.97455
289.91702
319.90734
347.68055
372.17501
393.20897
410.96817
425.72914
437.87412
447.84037
456.02627
462.76269
468.31655
472.90232
476.69299
479.82887
482.42431
484.57292
42.797562
43.067227
44.209811
47.427262
54.122391
65.765857
82.530343
103.8234
127.25954
153.07778
185.14584
222.54549
258.11498
290.09297
320.11352
347.9006
372.39836
393.43028
411.18452
425.93945
438.07887
448.04051
456.22272
462.95623
468.50779
473.09175
476.88101
480.0158
482.61041
484.7584
42.796447
43.064513
44.199336
47.4017
54.076649
65.70531
82.46705
103.77594
127.24993
153.1113
185.21722
222.65467
258.25641
290.26992
320.32064
348.12152
372.62249
393.65228
411.40147
426.15031
438.28415
448.24117
456.41968
463.15026
468.69952
473.28167
477.06952
480.20321
482.79699
484.94437
42.795335
43.061822
44.188924
47.376206
54.030949
65.64479
82.40376
103.7285
127.24037
153.14494
185.28893
222.76438
258.39846
290.44748
320.52832
348.34295
372.84705
393.87464
411.61873
426.36145
438.48968
448.44207
456.61688
463.34454
468.89149
473.47184
477.25827
480.39087
482.98383
485.13058
42.794227
43.059155
44.17858
47.350793
53.985319
65.584276
82.34044
103.68102
127.23077
153.1786
185.36076
222.8744
258.54089
290.62539
320.73629
348.56458
373.07175
394.09708
411.83604
426.57261
438.69523
448.64298
456.8141
463.53883
469.08348
473.66202
477.44704
480.57856
483.17068
485.31682
42.793122
43.056509
44.168297
47.325455
53.939726
65.523757
82.277051
103.63345
127.22109
153.21218
185.43261
222.98453
258.68348
290.80347
320.94437
348.78626
373.29644
394.31947
412.05326
426.78368
438.90069
448.8438
457.01123
463.73304
469.27539
473.85212
477.63574
480.76616
483.35746
485.50298
42.79202
43.053883
44.158072
47.300181
53.894199
65.463213
82.213573
103.58575
127.21127
153.24565
185.50438
223.09466
258.82612
290.98159
321.15242
349.00785
373.52099
394.54168
412.27028
426.99454
439.10593
449.04442
457.20815
463.92705
469.4671
474.04203
477.82424
480.95358
483.54405
485.68896
42.790922
43.051277
44.147904
47.274993
53.848717
65.402649
82.149997
103.53791
127.2013
153.27894
185.57601
223.20471
258.96873
291.15967
321.36037
349.22928
373.74534
394.76364
412.48704
427.20514
439.31093
449.24479
457.40484
464.12083
469.65859
474.23172
478.01253
481.14078
483.73043
485.87473
42.789827
43.048689
44.137804
47.24986
53.803294
65.342042
82.086303
103.4899
127.19114
153.31205
185.64747
223.31462
259.11126
291.33764
321.56815
349.45047
373.9694
394.98529
412.70347
427.41541
439.5156
449.44485
457.60122
464.3143
469.84978
474.42111
478.20052
481.32769
483.91651
486.0602
42.788735
43.046121
44.127761
47.224813
53.757929
65.281406
82.022494
103.44172
127.18078
153.34493
185.7187
223.42436
259.25364
291.51546
321.77572
349.67139
374.19316
395.20662
412.91957
427.62535
439.71994
449.64459
457.79729
464.50747
470.04067
474.61021
478.38822
481.51431
484.10231
486.24539
42.787645
43.043571
44.117776
47.199822
53.712608
65.220717
81.958555
103.39335
127.17022
153.37759
185.7897
223.53389
259.39585
291.69311
321.98305
349.89202
374.41658
395.42758
413.13528
427.83491
439.92391
449.84396
457.993
464.70029
470.23121
474.79897
478.57558
481.7006
484.28778
486.43025
42.786559
43.041039
44.107842
47.174913
53.667364
65.159993
81.894485
103.3448
127.15943
153.41001
185.86044
223.64318
259.53787
291.87056
322.19013
350.11233
374.63964
395.64816
413.35061
428.04409
440.12753
450.04299
458.18837
464.89278
470.42142
474.9874
478.76262
481.88656
484.47292
486.61478
42.785475
43.038524
44.097978
47.150064
53.622157
65.099209
81.830284
103.29605
127.14842
153.44218
185.93091
223.75224
259.6797
292.04779
322.39692
350.3323
374.86233
395.86834
413.56554
428.25287
440.33074
450.24163
458.38336
465.08489
470.61127
475.17546
478.94929
482.07216
484.65771
486.79897
42.784393
43.036026
44.088167
47.125291
53.577027
65.038385
81.76594
103.24711
127.13718
153.47409
186.00112
223.86104
259.82129
292.22479
322.60342
350.55194
375.08465
396.08812
413.78006
428.46126
440.53357
450.43989
458.57798
465.27664
470.80076
475.36317
479.13562
482.25742
484.84216
486.98281
42.783314
43.033545
44.078415
47.100584
53.531944
64.977496
81.701467
103.19797
127.1257
153.50574
186.07104
223.96957
259.96265
292.40156
322.80963
350.7712
375.30655
396.30747
413.99414
428.66921
440.73598
450.63774
458.7722
465.46799
470.98986
475.5505
479.32157
482.4423
485.02623
487.16627
42.782237
43.031081
44.068712
47.075948
53.486925
64.916565
81.636848
103.14864
127.11398
153.53713
186.14066
224.07783
260.10379
292.57808
323.01553
350.99011
375.52808
396.52642
414.20782
428.87676
440.93801
450.83522
458.96606
465.65899
471.1786
475.73748
479.50717
482.62684
485.20995
487.3494
42.781163
43.028636
44.059071
47.051387
53.441974
64.855566
81.57209
103.0991
127.10203
153.56824
186.20999
224.18582
260.24469
292.75435
323.22112
351.20865
375.74921
396.74496
414.42107
429.0839
441.13962
451.03229
459.15952
465.8496
471.36696
475.92408
479.6924
482.811
485.39331
487.53215
42.78009
43.026206
44.049486
47.026887
53.397069
64.794516
81.507191
103.04936
127.08982
153.59907
186.27903
224.29353
260.38533
292.93038
323.4264
351.42683
375.96993
396.96307
414.6339
429.29062
441.34083
451.22898
459.3526
466.03983
471.55496
476.11032
479.87726
482.9948
485.5763
487.71455
42.779019
43.023794
44.039961
47.002469
53.352252
64.733401
81.442144
102.99942
127.07738
153.62962
186.34776
224.40096
260.52574
293.10615
323.63136
351.64463
376.19024
397.18075
414.84628
429.4969
441.54162
451.42525
459.54528
466.22967
471.74256
476.29616
480.06174
483.17822
485.75892
487.89657
42.77795
43.0214
44.030484
46.978111
53.307476
64.672223
81.376961
102.94929
127.06469
153.65988
186.41621
224.50811
260.6659
293.28166
323.83601
351.86208
376.41018
397.39803
415.05827
429.70281
441.74203
451.62116
459.7376
466.41916
471.92982
476.48167
480.24588
483.36131
485.9412
488.07826
42.776883
43.01902
44.021059
46.953831
53.262787
64.610984
81.311626
102.89895
127.05175
153.68986
186.48435
224.61497
260.80583
293.45693
324.04035
352.07917
376.62971
397.61489
415.26984
429.90828
441.94203
451.81666
459.92952
466.60826
472.11669
476.66679
480.42964
483.54402
486.12311
488.25958
42.775817
43.016654
44.011697
46.929615
53.218153
64.549673
81.246149
102.84841
127.03856
153.71955
186.55219
224.72156
260.9455
293.63194
324.24438
352.29587
376.84884
397.83134
415.48098
430.11335
442.14164
452.01178
460.12108
466.79699
472.3032
476.85157
480.61305
483.72638
486.30468
488.44055
42.774754
43.014301
44.002389
46.905473
53.173588
64.488299
81.180524
102.79768
127.02512
153.74896
186.61972
224.82787
261.08492
293.8067
324.44808
352.51221
377.06757
398.04736
415.6917
430.318
442.34084
452.2065
460.31224
466.98534
472.48934
477.03596
480.79609
483.90838
486.48588
488.62115
42.773693
43.011961
43.993134
46.881399
53.129102
64.426846
81.114749
102.74675
127.01144
153.77807
186.68696
224.93391
261.22412
293.9812
324.65148
352.7282
377.28592
398.263
415.90203
430.52227
442.53967
452.40088
460.50305
467.17335
472.67514
477.22003
480.9788
484.09004
486.66675
488.80144
42.772633
43.009634
43.983924
46.857395
53.084668
64.365329
81.048829
102.69561
126.9975
153.80689
186.7539
225.03966
261.36307
294.15547
324.85458
352.94382
377.50386
398.47821
416.11193
430.72612
442.73809
452.59484
460.69348
467.36098
472.86056
477.40372
481.16115
484.27134
486.84726
488.98136
42.771574
43.00732
43.974774
46.833468
53.040332
64.303726
80.982754
102.64427
126.98331
153.83542
186.82055
225.14515
261.50178
294.32948
325.05736
353.15908
377.72143
398.69302
416.32143
430.92959
442.93614
452.78845
460.88354
467.54825
473.04563
477.58707
481.34315
484.45231
487.02743
489.16095
42.770515
43.005017
43.965677
46.809605
52.996048
64.242056
80.916537
102.59274
126.96887
153.86366
186.88689
225.25036
261.64026
294.50324
325.25982
353.37397
377.9386
398.90742
416.53051
431.13264
443.13378
452.98166
461.07323
467.73515
473.23034
477.77005
481.52479
484.63291
487.20725
489.34018
42.769458
43.002726
43.956638
46.78582
52.951855
64.180297
80.850163
102.54102
126.95417
153.8916
186.95293
225.35531
261.77851
294.67676
325.46201
353.58853
378.1554
399.12144
416.73922
431.33533
443.33108
453.17454
461.26259
467.92173
473.41473
477.95273
481.70612
484.81321
487.38676
489.5191
42.768401
43.000447
43.947643
46.762101
52.907732
64.11846
80.78364
102.48909
126.93923
153.91923
187.01868
225.45999
261.91653
294.85005
325.66388
353.80272
378.37181
399.33505
416.94752
431.53761
443.52798
453.36703
461.45157
468.10794
473.59876
478.13504
481.8871
484.99316
487.56592
489.69768
42.767345
42.998178
43.938694
46.738456
52.863682
64.056538
80.716963
102.43696
126.92403
153.94657
187.08413
225.5644
262.05432
295.0231
325.86545
354.01657
378.58785
399.54829
417.15543
431.73952
443.72452
453.55917
461.64021
468.29382
473.78246
478.31703
482.06776
485.17278
487.74476
489.87594
42.76629
42.99592
43.929808
46.714882
52.819726
63.994526
80.65013
102.38463
126.90857
153.97361
187.14928
225.66856
262.1919
295.19591
326.06672
354.23007
378.80351
399.76111
417.36294
431.94103
443.92068
453.75094
461.82848
468.47933
473.96579
478.49866
482.24806
485.35205
487.92326
490.05386
42.765235
42.993673
43.920974
46.691376
52.775828
63.932426
80.583148
102.33211
126.89286
154.00035
187.21415
225.77246
262.32926
295.36851
326.26772
354.44324
379.0188
399.97357
417.57008
432.14219
444.1165
453.94238
462.01644
468.66454
474.14884
478.68
482.42807
485.53104
488.10146
490.23149
42.764181
42.991439
43.912189
46.667946
52.732043
63.870227
80.516002
102.27938
126.87689
154.02679
187.27872
225.87611
262.46641
295.54087
326.46841
354.65604
379.23372
400.18563
417.77682
432.34296
444.31193
454.13345
462.20403
468.84938
474.33152
478.86099
482.60774
485.70968
488.27933
490.40878
42.763129
42.989215
43.903448
46.64458
52.688321
63.807937
80.448709
102.22645
126.86066
154.05293
187.343
225.9795
262.60334
295.713
326.66881
354.86852
379.44828
400.39732
417.98318
432.54336
444.50702
454.32418
462.3913
469.03391
474.51389
479.04166
482.78709
485.88802
488.45689
490.58576
42.762077
42.987001
43.894756
46.621296
52.644697
63.745539
80.381251
102.17331
126.84417
154.07877
187.40697
226.08265
262.74006
295.88492
326.86894
355.08066
379.66245
400.60862
418.18915
432.74337
444.70172
454.51454
462.5782
469.21808
474.69591
479.222
482.9661
486.06601
488.63411
490.76241
42.761025
42.9848
43.886122
46.598079
52.601159
63.683047
80.31364
102.11998
126.82742
154.10431
187.47066
226.18555
262.87659
296.05663
327.06878
355.29247
379.87629
400.81956
418.39478
432.94306
444.89612
454.7046
462.76481
469.40197
474.87765
479.40206
483.14485
486.24374
488.81107
490.93879
42.759972
42.982609
43.87754
46.574936
52.5577
63.620444
80.245868
102.06644
126.81042
154.12955
187.53406
226.2882
263.01292
296.22811
327.26833
355.50394
380.08976
401.03012
418.60002
433.14237
445.09014
454.8943
462.95107
469.58551
475.05906
479.58178
483.32326
486.42114
488.98769
491.11485
42.75892
42.980425
43.869004
46.551864
52.514355
63.557734
80.177936
102.01269
126.79315
154.15448
187.59716
226.39061
263.14904
296.39938
327.46762
355.71508
380.30287
401.24031
418.80489
433.34132
445.28382
455.08367
463.13702
469.76874
475.24015
479.7612
483.50137
486.59824
489.16403
491.29062
42.757867
42.978251
43.86051
46.52886
52.471079
63.494913
80.109847
101.95874
126.77562
154.17911
187.65996
226.49278
263.28498
296.57045
327.66663
355.92589
380.51561
401.45011
419.00937
433.53989
445.47714
455.27269
463.32261
469.95164
475.42092
479.94029
483.67916
486.77503
489.34005
491.46606
42.756814
42.976084
43.852066
46.505933
52.427926
63.431972
80.041593
101.90457
126.75782
154.20344
187.72247
226.59471
263.42073
296.74132
327.86536
356.13638
380.72802
401.65958
419.21353
433.73815
445.67016
455.46143
463.50794
470.13427
475.60142
480.11913
483.85669
486.95155
489.51581
491.64126
42.75576
42.973925
43.843677
46.483068
52.384856
63.368917
79.973186
101.85019
126.73977
154.22746
187.78468
226.69641
263.5563
296.91199
328.06381
356.34654
380.94007
401.86867
419.4173
433.93603
445.86281
455.6498
463.69291
470.31655
475.78159
480.29763
484.0339
487.12776
489.69125
491.81613
42.754706
42.971773
43.83534
46.460286
52.34189
63.305733
79.904612
101.7956
126.72144
154.25117
187.8466
226.79788
263.69168
297.08246
328.26201
356.55638
381.15177
402.0774
419.62071
434.13357
446.05513
455.83786
463.87758
470.49854
475.96147
480.47585
484.21082
487.30368
489.86641
491.99073
42.753651
42.969629
43.827045
46.437569
52.299033
63.24243
79.835886
101.74079
126.70285
154.27458
187.90822
226.89912
263.8269
297.25274
328.45994
356.76589
381.36311
402.28576
419.82376
434.33075
446.24712
456.02559
464.06192
470.68021
476.14103
480.65376
484.38744
487.4793
490.04128
492.16503
42.752595
42.967492
43.818792
46.414926
52.256263
63.178998
79.766995
101.68577
126.684
154.29768
187.96955
227.00013
263.96196
297.42284
328.65761
356.97511
381.57414
402.4938
420.02649
434.52764
446.43881
456.21305
464.24601
470.86163
476.32035
480.83143
484.56382
487.65469
490.2159
492.3391
42.751538
42.965362
43.810588
46.392358
52.213627
63.115437
79.697951
101.63051
126.66488
154.32049
188.03058
227.10094
264.09686
297.59277
328.85504
357.18401
381.78481
402.70146
420.22884
434.72415
446.63015
456.40016
464.42976
471.04272
476.49934
481.00878
484.73988
487.82976
490.39022
492.51285
42.75048
42.963238
43.802437
46.369855
52.171075
63.051742
79.628748
101.57504
126.64549
154.34299
188.09132
227.20152
264.2316
297.76252
329.05222
357.3926
381.99515
402.90878
420.43086
434.92034
446.82118
456.58698
464.61322
471.22353
476.67807
481.18586
484.91569
488.00457
490.56427
492.68635
42.749421
42.961122
43.794338
46.347432
52.128653
62.987909
79.559391
101.51934
126.62583
154.36519
188.15175
227.3019
264.36619
297.9321
329.24913
357.60088
382.20514
403.11575
420.63252
435.11618
447.01188
456.77347
464.79636
471.40404
476.85649
481.36264
485.09119
488.17909
490.73804
492.85956
42.748361
42.959011
43.78628
46.325069
52.086331
62.923943
79.489881
101.46341
126.60591
154.38709
188.21189
227.40206
264.50066
298.10153
329.44582
357.80888
382.41483
403.32239
420.83387
435.31173
447.2023
456.9597
464.97925
471.58429
477.03466
481.53918
485.26646
488.35337
490.91158
493.03253
42.7473
42.956907
43.778264
46.302792
52.044122
62.859839
79.420218
101.40724
126.5857
154.4087
188.27174
227.50203
264.635
298.2708
329.64228
358.01656
382.62416
403.52867
421.03484
435.50691
447.39236
457.14559
465.16182
471.76423
477.21253
481.71542
485.44143
488.52735
491.08481
493.20521
42.746238
42.954812
43.770294
46.280577
52.002036
62.795604
79.350409
101.35084
126.56522
154.43001
188.33129
227.6018
264.7692
298.43993
329.83849
358.22396
382.83318
403.73462
421.2355
435.70179
447.58214
457.3312
465.34412
471.9439
477.39014
481.89141
485.61615
488.70109
491.25781
493.37765
42.745174
42.952723
43.762379
46.258438
51.960003
62.731312
79.280446
101.2942
126.54447
154.45102
188.39055
227.70137
264.90328
298.60889
330.03445
358.43104
383.04186
403.94022
421.43581
435.89634
447.77159
457.5165
465.52611
472.12328
477.56746
482.06711
485.79058
488.87455
491.43052
493.54981
42.744109
42.950639
43.754515
46.236375
51.918056
62.666987
79.210341
101.23731
126.52344
154.47174
188.44951
227.80075
265.03727
298.77773
330.23021
358.63785
383.25024
404.14551
421.6358
436.09058
447.96077
457.70153
465.70785
472.30242
477.74454
482.24258
485.96479
489.04778
491.60301
493.72175
42.743042
42.948564
43.746692
46.214375
51.876147
62.602632
79.140078
101.18017
126.50214
154.49217
188.50818
227.89995
265.17115
298.94642
330.42574
358.84436
383.45828
404.35044
421.83544
436.28449
448.14961
457.88625
465.88928
472.48125
477.92133
482.41776
486.13871
489.22073
491.77522
493.89341
42.741973
42.946496
43.73891
46.19246
51.834314
62.538244
79.069673
101.1228
126.48056
154.51231
188.56656
227.99896
265.30492
299.11499
330.62103
359.05059
383.66601
404.55506
422.03478
436.4781
448.33818
458.0707
466.07045
472.65984
478.09787
482.5927
486.3124
489.39345
491.94719
494.06484
42.740903
42.944434
43.73117
46.170601
51.792535
62.473831
78.999109
101.06517
126.45869
154.53216
188.62466
228.09781
265.4386
299.28341
330.8161
359.25653
383.87342
404.75934
422.23378
436.67138
448.52643
458.25484
466.25133
472.83813
478.27413
482.76735
486.4858
489.56589
492.1189
494.23599
42.739832
42.942376
43.723487
46.148834
51.750812
62.409384
78.928401
101.00728
126.43655
154.55172
188.68248
228.19649
265.5722
299.45172
331.01097
359.4622
384.08052
404.9633
422.43247
436.86437
448.7144
458.43872
466.43196
473.01619
478.45015
482.94178
486.65898
489.7381
492.29038
494.40692
42.73876
42.940323
43.715855
46.127128
51.709163
62.344908
78.857533
100.94915
126.41412
154.571
188.74004
228.295
265.70572
299.6199
331.20561
359.66758
384.28732
405.16694
422.63082
437.05703
448.90206
458.6223
466.61229
473.19396
478.6259
483.11594
486.8319
489.91005
492.46159
494.57759
42.737686
42.938275
43.708264
46.1055
51.667554
62.280406
78.786519
100.89076
126.39139
154.58999
188.79736
228.39335
265.83912
299.78794
331.40004
359.8727
384.49382
405.37028
422.82888
437.24942
449.08945
458.80563
466.79238
473.37148
478.80141
483.28986
487.00458
490.08177
492.63258
494.74803
42.736611
42.936232
43.700713
46.083952
51.626029
62.215873
78.715345
100.8321
126.36837
154.60869
188.85442
228.49154
265.97244
299.95585
331.59425
360.07753
384.69999
405.57327
423.02661
437.44147
449.27653
458.98865
466.97217
473.54872
478.97664
483.4635
487.17698
490.25322
492.8033
494.91821
42.735533
42.934193
43.693203
46.062465
51.584545
62.151319
78.644022
100.77319
126.34505
154.6271
188.91126
228.58958
266.10566
300.12364
331.78827
360.28211
384.90589
405.77598
423.22404
437.63326
449.46335
459.17143
467.15173
473.72574
479.15164
483.63693
487.34918
490.42446
492.97381
495.08818
42.734454
42.932159
43.685745
46.041071
51.543132
62.086734
78.572542
100.71402
126.32141
154.64523
188.96787
228.68748
266.23878
300.29131
331.98208
360.48643
385.1115
405.97837
423.42117
437.82474
449.64988
459.35392
467.33101
473.90248
479.32638
483.8101
487.52111
490.59544
493.14407
495.25789
42.733372
42.930129
43.67834
46.019731
51.501778
62.022124
78.500909
100.65458
126.29747
154.66307
189.02426
228.78522
266.37178
300.45885
332.17569
360.69049
385.31681
406.18047
423.618
438.01593
449.83614
459.53615
467.51005
474.07898
479.50089
483.98303
487.69282
490.7662
493.3141
495.42738
42.732288
42.928103
43.670978
45.998489
51.460474
61.957495
78.429122
100.59487
126.27323
154.68062
189.08043
228.88281
266.50469
300.62627
332.3691
360.89427
385.52182
406.38224
423.8145
438.20681
450.02209
459.71809
467.68879
474.2552
479.67512
484.15569
487.86426
490.93669
493.48386
495.59661
42.731202
42.926082
43.663656
45.977312
51.419247
61.892836
78.357179
100.5349
126.24868
154.69789
189.13638
228.98026
266.63752
300.79358
332.56233
361.09783
385.72657
406.58375
424.01074
438.39744
450.2078
459.8998
467.86732
474.43121
479.84914
484.32815
488.0355
491.10698
493.65344
495.76564
42.730114
42.924064
43.656374
45.956209
51.37806
61.828158
78.285082
100.47467
126.22382
154.71487
189.19211
229.07757
266.77025
300.96079
332.75537
361.30115
385.93105
406.78496
424.20668
438.58778
450.39323
460.08123
468.04558
474.60696
480.02291
484.50036
488.20648
491.27702
493.82276
495.93443
42.729023
42.92205
43.649135
45.935197
51.336953
61.763454
78.212828
100.41415
126.19865
154.73157
189.24762
229.17474
266.9029
301.1279
332.94824
361.50423
386.13526
406.98589
424.40234
438.77784
450.5784
460.26242
468.22359
474.78247
480.19644
484.67234
488.37724
491.44684
493.99186
496.10299
42.727931
42.920041
43.641951
45.914243
51.295893
61.698727
78.140422
100.35337
126.17318
154.74798
189.30292
229.27178
267.03547
301.2949
333.14094
361.70706
386.33918
407.18651
424.59769
438.9676
450.76328
460.44333
468.40134
474.95772
480.36971
484.84406
488.54775
491.61641
494.16071
496.27131
42.726839
42.918038
43.634815
45.89339
51.254897
61.633988
78.067857
100.29231
126.14739
154.7641
189.35799
229.36868
267.16797
301.46183
333.33348
361.9097
386.54288
407.3869
424.79281
439.15715
450.94795
460.62403
468.57889
475.13277
480.5428
485.0156
488.71808
491.7858
494.32938
496.43944
42.725743
42.916039
43.627719
45.872597
51.213966
61.569218
77.995138
100.23098
126.12128
154.77994
189.41285
229.46545
267.30041
301.62868
333.52585
362.11211
386.74632
407.58702
424.98764
439.34641
451.13235
460.80447
468.75618
475.30757
480.71563
485.18689
488.88816
491.95494
494.49781
496.60734
42.724646
42.914042
43.620662
45.851895
51.173085
61.504433
77.922258
100.16936
126.09486
154.79549
189.46749
229.5621
267.43277
301.79545
333.71808
362.31431
386.94951
407.78686
425.18221
439.53541
451.3165
460.98467
468.93324
475.48215
480.88825
485.35796
489.05803
492.12388
494.66603
496.77503
42.723546
42.91205
43.613644
45.831272
51.132279
61.43963
77.849225
100.10747
126.06812
154.81075
189.52193
229.65862
267.56507
301.96213
333.91016
362.51629
387.15244
407.98643
425.37649
439.72414
451.50038
461.16461
469.11004
475.65648
481.06062
485.52879
489.22765
492.29257
494.83401
496.94248
42.722443
42.910066
43.606673
45.810717
51.091517
61.374802
77.776029
100.04529
126.04105
154.82572
189.57615
229.75501
267.69732
302.12877
334.10211
362.7181
387.35518
408.18579
425.57057
439.91267
451.68407
461.34437
469.28668
475.83063
481.23283
485.69946
489.39712
492.46111
495.00184
497.10978
42.721338
42.908084
43.599755
45.790266
51.050834
61.309964
77.702678
99.982822
126.01366
154.8404
189.63014
229.85129
267.82952
302.29534
334.29393
362.91972
387.55769
408.3849
425.76439
440.10094
451.86751
461.52388
469.46306
476.00455
481.40479
485.86989
489.56635
492.62941
495.16943
497.27684
42.72023
42.906105
43.59288
45.769871
51.010205
61.245103
77.629163
99.920071
125.98594
154.85479
189.68392
229.94744
267.96167
302.46186
334.48562
363.12113
387.75996
408.58375
425.95796
440.28896
452.05072
461.70317
469.63923
476.17825
481.57655
486.04012
489.73538
492.79751
495.33683
497.4437
42.719119
42.90413
43.586042
45.74958
50.969635
61.180224
77.555493
99.857028
125.9579
154.86888
189.73748
230.04347
268.09376
302.62831
334.67717
363.32236
387.96201
408.78237
426.15127
440.47674
452.23368
461.88222
469.81517
476.35173
481.74808
486.21012
489.90419
492.96539
495.504
497.61035
42.718006
42.902156
43.579244
45.729361
50.929138
61.115342
77.481655
99.793689
125.92953
154.88269
189.79083
230.13939
268.22582
302.79474
334.86864
363.52346
388.16389
408.9808
426.3444
440.66435
452.41648
462.06111
469.99096
476.52506
481.91948
486.37999
490.07286
493.13314
495.67104
497.77687
42.716889
42.900184
43.572489
45.709219
50.888692
61.050432
77.407663
99.730059
125.90083
154.8962
189.84396
230.23519
268.35785
302.96113
335.05999
363.72438
388.36556
409.17899
426.53729
440.85171
452.59904
462.23977
470.16651
476.69816
482.09064
486.54963
490.24131
493.30067
495.83787
497.94317
42.715768
42.898211
43.565786
45.689177
50.848323
60.985515
77.333503
99.666134
125.8718
154.90941
189.89689
230.33089
268.48986
303.1275
335.25126
363.92514
388.56704
409.37698
426.72996
441.03886
452.7814
462.41824
470.34188
476.87108
482.26163
486.7191
490.40959
493.46802
496.00452
498.10929
42.714644
42.896238
43.559139
45.669193
50.808007
60.920589
77.259186
99.601905
125.84244
154.92233
189.9496
230.42648
268.62183
303.29384
335.44243
364.12575
388.76833
409.57475
426.92242
441.22579
452.96354
462.59649
470.51704
477.04379
482.43241
486.88836
490.57766
493.63517
496.17097
498.27522
42.713516
42.894264
43.552538
45.649322
50.767762
60.855642
77.184702
99.537379
125.81273
154.93496
190.0021
230.52197
268.75379
303.46017
335.63353
364.32625
388.96948
409.77237
427.11472
441.41258
453.14554
462.77461
470.69207
477.21638
482.60306
487.0575
490.74561
493.80221
496.3373
498.44102
42.712384
42.892291
43.545978
45.629517
50.727586
60.790694
77.110057
99.472551
125.78269
154.9473
190.05439
230.61737
268.88574
303.6265
335.82456
364.52661
389.17045
409.96978
427.30679
441.59914
453.32733
462.95251
470.86689
477.38876
482.77352
487.22644
490.91337
493.96904
496.50343
498.60664
42.711249
42.890316
43.539461
45.609797
50.68747
60.725735
77.035245
99.407413
125.7523
154.95933
190.10647
230.71266
269.01768
303.79282
336.01552
364.72685
389.37126
410.16702
427.4987
441.78554
453.50895
463.13026
471.04156
477.56099
482.94382
487.39522
491.08097
494.13573
496.66942
498.7721
42.71011
42.888341
43.532987
45.590173
50.647427
60.66076
76.960271
99.341971
125.72158
154.97108
190.15833
230.80786
269.14961
303.95914
336.20642
364.92698
389.57193
410.3641
427.69042
441.97175
453.69039
463.30783
471.21604
477.73304
483.11395
487.56384
491.2484
494.30225
496.83524
498.9374
42.708966
42.886365
43.526561
45.570609
50.607441
60.59579
76.885131
99.276225
125.69052
154.98252
190.21
230.90297
269.28155
304.12549
336.39729
365.12703
389.77249
410.56105
427.88202
442.15784
453.87171
463.48529
471.39043
477.90499
483.28398
487.73236
491.41574
494.46867
497.00096
499.1026
42.70782
42.884388
43.520194
45.551162
50.567534
60.530805
76.809825
99.210162
125.65912
154.99367
190.26145
230.998
269.4135
304.29186
336.58812
365.32696
389.9729
410.75782
428.07343
442.34374
454.05285
463.66256
471.56463
478.07677
483.45384
487.90071
491.58291
494.63492
497.16652
499.26764
42.706669
42.882412
43.51387
45.53178
50.527691
60.465809
76.734354
99.14379
125.62737
155.00453
190.31271
231.09295
269.54547
304.45826
336.77891
365.52681
390.17319
410.95445
428.2647
442.52951
454.23386
463.83971
471.73871
478.24842
483.62357
488.06893
491.74995
494.80105
497.33195
499.43256
42.705514
42.880436
43.507588
45.512485
50.487918
60.400822
76.658714
99.077108
125.59528
155.01508
190.36376
231.18782
269.67745
304.62468
336.96968
365.72659
390.37337
411.15096
428.45582
442.71512
454.41472
464.01671
471.91265
478.41992
483.79316
488.23702
491.91686
494.96705
497.49725
499.59733
42.704356
42.878458
43.501348
45.493287
50.448216
60.335819
76.58291
99.010104
125.56284
155.02534
190.41461
231.28262
269.80947
304.79117
337.16045
365.92632
390.57348
411.34737
428.64685
442.90064
454.59549
464.19363
472.0865
478.59135
483.96267
488.40502
492.08369
495.13296
497.66247
499.76204
42.703195
42.876479
43.495148
45.47415
50.408579
60.270811
76.506935
98.942787
125.53004
155.03529
190.46525
231.37734
269.94151
304.95769
337.35119
366.12597
390.77346
411.54362
428.83771
443.086
454.7761
464.37039
472.2602
478.76263
484.13204
488.57288
492.25037
495.29874
497.82755
499.9266
42.702032
42.874504
43.488983
45.455131
50.369019
60.205812
76.430795
98.875154
125.49688
155.04495
190.51569
231.472
270.0736
305.12427
337.54194
366.32557
390.97335
411.73978
429.02847
443.27126
454.95662
464.54706
472.4338
478.93381
484.30131
488.74065
492.41697
495.46442
497.99254
500.09107
42.700867
42.872535
43.482869
45.43618
50.329524
60.140798
76.354483
98.807196
125.46338
155.0543
190.56592
231.56659
270.20572
305.29091
337.73269
366.52512
391.17318
411.93585
429.21912
443.4564
455.13701
464.72361
472.60729
479.10488
484.47047
488.90831
492.58345
495.63
498.15743
500.25544
42.6997
42.870568
43.47679
45.417315
50.290108
60.075787
76.278005
98.738918
125.42953
155.06336
190.61596
231.66113
270.3379
305.45764
337.92349
366.72466
391.37296
412.13184
429.40969
443.64147
455.31734
464.90009
472.78072
479.27589
484.63958
489.07591
492.74987
495.79551
498.32225
500.41975
42.69853
42.868605
43.470743
45.39855
50.250763
60.010782