/*--------------------------------*- C++ -*----------------------------------*\
| =========                 |                                                 |
| \\      /  F ield         | OpenFOAM: The Open Source CFD Toolbox           |
|  \\    /   O peration     | Version:  v2012                                 |
|   \\  /    A nd           | Website:  www.openfoam.com                      |
|    \\/     M anipulation  |                                                 |
\*---------------------------------------------------------------------------*/
FoamFile
{
    version     2.0;
    format      ascii;
    class       volVectorField;
    location    "800";
    object      U;
}
// * * * * * * * * * * * * * * * * * * * * * * * * * * * * * * * * * * * * * //

dimensions      [0 1 -1 0 0 0 0];


internalField   nonuniform List<vector> 
24000
(
(29.446217 -0.0065911812 0)
(29.606622 -0.01927616 0)
(30.126725 -0.025622761 0)
(31.079102 -0.017814041 0)
(32.436555 -0.0052284549 0)
(34.091163 0.0079789939 0)
(35.811573 0.018047384 0)
(37.402456 0.024923849 0)
(38.608343 0.027415921 0)
(39.355767 0.026749799 0)
(39.532719 0.024784291 0)
(38.772098 0.021538062 0)
(37.075423 0.019073024 0)
(34.700323 0.016654786 0)
(31.670268 0.012993753 0)
(28.123104 0.010582271 0)
(24.398512 0.0085872946 0)
(20.748988 0.0066715171 0)
(17.34154 0.0049068871 0)
(14.290374 0.0035994981 0)
(11.639676 0.0025751345 0)
(9.3727214 0.0017864084 0)
(7.4485983 0.0011964041 0)
(5.8220321 0.00076827991 0)
(4.4505538 0.00046802115 0)
(3.2963972 0.00026562469 0)
(2.3266697 0.00013580172 0)
(1.5130168 5.8058021e-05 0)
(0.83115173 1.7482537e-05 0)
(0.26036896 1.0042832e-06 0)
(29.433144 -0.0072407429 0)
(29.59421 -0.021299052 0)
(30.114134 -0.02812024 0)
(31.064675 -0.019032114 0)
(32.419558 -0.003870397 0)
(34.071262 0.012133849 0)
(35.789301 0.024293852 0)
(37.378784 0.032691326 0)
(38.584401 0.035252802 0)
(39.331621 0.033390095 0)
(39.507994 0.030502121 0)
(38.746944 0.02729871 0)
(37.049606 0.024250937 0)
(34.672366 0.020547447 0)
(31.63932 0.016693303 0)
(28.089956 0.013014462 0)
(24.363584 0.0098941313 0)
(20.712657 0.0073305458 0)
(17.304547 0.0052997622 0)
(14.253663 0.0037419529 0)
(11.604259 0.0025811818 0)
(9.3396299 0.0017338537 0)
(7.418753 0.0011284758 0)
(5.7961155 0.00070640691 0)
(4.428957 0.00042041382 0)
(3.2792374 0.0002333471 0)
(2.313847 0.00011650597 0)
(1.504281 4.8291602e-05 0)
(0.82616304 1.3769458e-05 0)
(0.25874584 6.6232324e-07 0)
(29.42186 -0.0074860179 0)
(29.581603 -0.021891032 0)
(30.097389 -0.028721214 0)
(31.042855 -0.019235973 0)
(32.393519 -0.0033204796 0)
(34.042845 0.01356645 0)
(35.760448 0.026185318 0)
(37.351252 0.034695521 0)
(38.559604 0.03700689 0)
(39.308914 0.034833549 0)
(39.486639 0.031284579 0)
(38.726847 0.027626976 0)
(37.030266 0.023711575 0)
(34.652437 0.019265144 0)
(31.617954 0.014774357 0)
(28.068378 0.010652736 0)
(24.343519 0.0073383665 0)
(20.695505 0.0048220041 0)
(17.291363 0.0030347906 0)
(14.244874 0.001840807 0)
(11.59943 0.0010856356 0)
(9.3378677 0.00062417964 0)
(7.4190782 0.00034958372 0)
(5.7976598 0.00018988135 0)
(4.4310399 9.9187359e-05 0)
(3.281373 4.8973212e-05 0)
(2.3157176 2.2039067e-05 0)
(1.5056999 8.3915479e-06 0)
(0.82703833 2.1229307e-06 0)
(0.25905013 3.5765428e-07 0)
(29.409991 -0.0076559514 0)
(29.568867 -0.022274546 0)
(30.081648 -0.029104633 0)
(31.023102 -0.019369194 0)
(32.370044 -0.0029474063 0)
(34.017089 0.014516119 0)
(35.733949 0.027443009 0)
(37.325365 0.036079637 0)
(38.535344 0.038382524 0)
(39.285838 0.036198002 0)
(39.464135 0.032582698 0)
(38.704591 0.02872817 0)
(37.007844 0.024642094 0)
(34.628728 0.020059355 0)
(31.592537 0.015489955 0)
(28.042917 0.011351054 0)
(24.319595 0.0080551901 0)
(20.674078 0.0055481547 0)
(17.272964 0.0037311048 0)
(14.229577 0.0024628241 0)
(11.586898 0.0016015635 0)
(9.3276781 0.001023359 0)
(7.4108632 0.00063890389 0)
(5.7911279 0.00038646909 0)
(4.4259569 0.00022365336 0)
(3.2775433 0.00012129613 0)
(2.3129721 5.9447968e-05 0)
(1.5038896 2.4308773e-05 0)
(0.82603156 6.8228476e-06 0)
(0.25873073 4.7190204e-07 0)
(29.398075 -0.0077537336 0)
(29.556098 -0.022432648 0)
(30.065957 -0.029260711 0)
(31.00345 -0.019427023 0)
(32.346685 -0.0027349341 0)
(33.991464 0.015040971 0)
(35.707538 0.028131277 0)
(37.299489 0.036847964 0)
(38.510999 0.039164431 0)
(39.262636 0.036995673 0)
(39.441443 0.033335749 0)
(38.682041 0.02940072 0)
(36.985081 0.025196186 0)
(34.604703 0.020509998 0)
(31.566873 0.015848164 0)
(28.017244 0.011626416 0)
(24.295467 0.0082528385 0)
(20.652462 0.0056763161 0)
(17.254473 0.0038029958 0)
(14.214396 0.0024948459 0)
(11.574741 0.0016097438 0)
(9.3180916 0.0010198867 0)
(7.4034012 0.00063152279 0)
(5.7854049 0.00037925183 0)
(4.4216548 0.00021823027 0)
(3.2744027 0.00011799366 0)
(2.3107826 5.7790519e-05 0)
(1.5024806 2.3658366e-05 0)
(0.8252644 6.6501264e-06 0)
(0.25849252 5.0583948e-07 0)
(29.386107 -0.0078086893 0)
(29.543347 -0.022477705 0)
(30.050417 -0.029323585 0)
(30.984044 -0.019470332 0)
(32.323619 -0.0026210914 0)
(33.966146 0.015338538 0)
(35.681402 0.028535908 0)
(37.273826 0.037315459 0)
(38.486783 0.039662634 0)
(39.239491 0.037523876 0)
(39.418727 0.033863383 0)
(38.659337 0.029889873 0)
(36.962032 0.025623585 0)
(34.580277 0.020875634 0)
(31.540695 0.016154714 0)
(27.990957 0.011876956 0)
(24.270652 0.0084507086 0)
(20.630126 0.0058284041 0)
(17.235262 0.0039168313 0)
(14.198514 0.0025778214 0)
(11.561914 0.0016685283 0)
(9.3078821 0.0010601731 0)
(7.3953766 0.00065801397 0)
(5.7791918 0.00039579944 0)
(4.4169422 0.00022790443 0)
(3.2709344 0.00012307924 0)
(2.3083472 6.0122345e-05 0)
(1.5009036 2.4534888e-05 0)
(0.82440113 6.8806924e-06 0)
(0.258223 4.9772428e-07 0)
(29.374137 -0.007836393 0)
(29.530633 -0.022456365 0)
(30.034963 -0.029337877 0)
(30.964749 -0.019512657 0)
(32.300676 -0.0025743733 0)
(33.940955 0.015492954 0)
(35.655378 0.02876532 0)
(37.24825 0.037592421 0)
(38.462622 0.039971944 0)
(39.21637 0.037859368 0)
(39.395993 0.03420681 0)
(38.636538 0.030211055 0)
(36.938803 0.025904328 0)
(34.555599 0.021114285 0)
(31.514195 0.016352111 0)
(27.964284 0.012034373 0)
(24.245417 0.0085718681 0)
(20.607367 0.0059181983 0)
(17.215648 0.0039813259 0)
(14.182267 0.0026229068 0)
(11.548772 0.0016992558 0)
(9.297408 0.0010805716 0)
(7.3871365 0.00067125007 0)
(5.7728075 0.00040417584 0)
(4.4120978 0.00023303544 0)
(3.2673681 0.00012613624 0)
(2.3058427 6.1789274e-05 0)
(1.4992817 2.5278254e-05 0)
(0.82351325 7.1005212e-06 0)
(0.2579458 5.129444e-07 0)
(29.362183 -0.0078479554 0)
(29.517962 -0.022399908 0)
(30.019575 -0.029331662 0)
(30.945528 -0.019561137 0)
(32.277812 -0.0025730408 0)
(33.915842 0.015557558 0)
(35.629423 0.02888655 0)
(37.22273 0.037749016 0)
(38.438498 0.040159096 0)
(39.193268 0.038068089 0)
(39.373252 0.034425252 0)
(38.613679 0.030416402 0)
(36.915454 0.02608381 0)
(34.530747 0.021265848 0)
(31.487473 0.016476837 0)
(27.937351 0.012133714 0)
(24.219901 0.0086478559 0)
(20.584326 0.0059741668 0)
(17.195768 0.0040213109 0)
(14.165779 0.0026507853 0)
(11.535417 0.0017180556 0)
(9.2867524 0.0010927914 0)
(7.378745 0.00067881887 0)
(5.7663003 0.00040857776 0)
(4.4071564 0.00023538019 0)
(3.2637282 0.00012717338 0)
(2.3032852 6.2139262e-05 0)
(1.4976247 2.535436e-05 0)
(0.82260586 7.1070553e-06 0)
(0.25766243 5.0352665e-07 0)
(29.35026 -0.0078502894 0)
(29.505337 -0.022325563 0)
(30.004235 -0.029318139 0)
(30.92635 -0.019617905 0)
(32.25499 -0.0026042182 0)
(33.890768 0.015562716 0)
(35.603501 0.028937928 0)
(37.197236 0.037826772 0)
(38.41439 0.040264848 0)
(39.170171 0.038191705 0)
(39.350497 0.034559342 0)
(38.590771 0.030543641 0)
(36.892015 0.026195905 0)
(34.505771 0.021360483 0)
(31.460597 0.016555017 0)
(27.91024 0.012197098 0)
(24.194199 0.0086969818 0)
(20.561101 0.0060114588 0)
(17.175717 0.0040490717 0)
(14.149135 0.0026710431 0)
(11.521926 0.0017326069 0)
(9.2759791 0.0011030794 0)
(7.3702548 0.00068598549 0)
(5.7597127 0.00041348745 0)
(4.4021514 0.00023866546 0)
(3.2600399 0.00012935775 0)
(2.3006928 6.347163e-05 0)
(1.4959447 2.6016929e-05 0)
(0.82168563 7.326773e-06 0)
(0.25737497 5.287882e-07 0)
(29.338372 -0.0078476163 0)
(29.492756 -0.022242745 0)
(29.98893 -0.029304309 0)
(30.907201 -0.019683711 0)
(32.232193 -0.0026591328 0)
(33.865713 0.015526644 0)
(35.577593 0.028942557 0)
(37.17175 0.037852068 0)
(38.390283 0.040316049 0)
(39.14707 0.038257882 0)
(39.327727 0.03463615 0)
(38.567826 0.030617926 0)
(36.868512 0.026260823 0)
(34.480708 0.021413936 0)
(31.433615 0.016597533 0)
(27.883012 0.012230191 0)
(24.168375 0.0087218876 0)
(20.537759 0.0060296526 0)
(17.155557 0.0040619588 0)
(14.132393 0.0026797709 0)
(11.508347 0.0017382271 0)
(9.265131 0.0011064817 0)
(7.3617023 0.00068781565 0)
(5.7530744 0.00041426477 0)
(4.3971066 0.00023880529 0)
(3.2563214 0.00012909937 0)
(2.2980786 6.3125646e-05 0)
(1.4942502 2.5787949e-05 0)
(0.82075741 7.2474897e-06 0)
(0.257085 5.1591375e-07 0)
(29.326522 -0.0078424746 0)
(29.480219 -0.022156656 0)
(29.973655 -0.029293107 0)
(30.888071 -0.019758569 0)
(32.209409 -0.0027321011 0)
(33.840663 0.015462207 0)
(35.551684 0.028914796 0)
(37.14626 0.037840827 0)
(38.36617 0.040330575 0)
(39.123957 0.038285357 0)
(39.304939 0.034674393 0)
(38.544849 0.030656676 0)
(36.844959 0.026294168 0)
(34.455581 0.021440284 0)
(31.406562 0.016618504 0)
(27.855709 0.012246999 0)
(24.142476 0.0087352901 0)
(20.514348 0.0060400335 0)
(17.135333 0.0040699426 0)
(14.115594 0.0026859211 0)
(11.494717 0.0017428286 0)
(9.2542382 0.0011098125 0)
(7.3531117 0.00069022175 0)
(5.7464048 0.00041600033 0)
(4.3920367 0.00024003745 0)
(3.2525837 0.0001300028 0)
(2.2954505 6.3712405e-05 0)
(1.4925466 2.6074363e-05 0)
(0.81982402 7.3313977e-06 0)
(0.25679337 5.2104135e-07 0)
(29.314712 -0.0078364935 0)
(29.467723 -0.02207052 0)
(29.958406 -0.029285518 0)
(30.868954 -0.019840575 0)
(32.186632 -0.002818895 0)
(33.815612 0.015376249 0)
(35.525768 0.028864095 0)
(37.120758 0.037804952 0)
(38.342041 0.040320397 0)
(39.100828 0.038286243 0)
(39.282133 0.034685892 0)
(38.521844 0.030669851 0)
(36.821366 0.026304998 0)
(34.430406 0.021447503 0)
(31.379458 0.016623977 0)
(27.828356 0.012251691 0)
(24.116529 0.0087385278 0)
(20.490892 0.0060422913 0)
(17.115069 0.0040715527 0)
(14.098757 0.0026871597 0)
(11.481052 0.001743599 0)
(9.243313 0.0011101438 0)
(7.3444928 0.00069020215 0)
(5.7397113 0.00041575192 0)
(4.3869475 0.00023967955 0)
(3.248831 0.00012957426 0)
(2.2928114 6.334819e-05 0)
(1.4908356 2.5866428e-05 0)
(0.81888651 7.2641445e-06 0)
(0.25650042 5.1211261e-07 0)
(29.30294 -0.0078306352 0)
(29.455266 -0.021986061 0)
(29.943179 -0.02928187 0)
(30.849847 -0.01992872 0)
(32.163858 -0.0029158205 0)
(33.790555 0.015275654 0)
(35.499838 0.028797678 0)
(37.095238 0.037751184 0)
(38.317895 0.040291978 0)
(39.07768 0.038268608 0)
(39.259306 0.03467963 0)
(38.498814 0.030667155 0)
(36.797741 0.026303237 0)
(34.405195 0.021444662 0)
(31.352321 0.016620236 0)
(27.800973 0.012248983 0)
(24.090558 0.0087368918 0)
(20.467419 0.0060418858 0)
(17.094792 0.0040722303 0)
(14.081909 0.0026884468 0)
(11.467376 0.001745167 0)
(9.2323784 0.0011117445 0)
(7.3358655 0.00069169996 0)
(5.7330106 0.0004170729 0)
(4.3818524 0.00024078248 0)
(3.2450736 0.0001305022 0)
(2.2901689 6.4016823e-05 0)
(1.4891223 2.6229315e-05 0)
(0.81794764 7.3839982e-06 0)
(0.25620702 5.2528119e-07 0)
(29.291207 -0.0078253229 0)
(29.442847 -0.021903628 0)
(29.927971 -0.029281731 0)
(30.830747 -0.020022197 0)
(32.141085 -0.0030212789 0)
(33.765488 0.01516341 0)
(35.473893 0.028719992 0)
(37.0697 0.037684242 0)
(38.293727 0.040249633 0)
(39.054512 0.038237107 0)
(39.236459 0.034659868 0)
(38.475764 0.03065192 0)
(36.774091 0.026289408 0)
(34.379958 0.021430787 0)
(31.325161 0.016607237 0)
(27.773576 0.012237895 0)
(24.064579 0.0087282864 0)
(20.443943 0.0060354887 0)
(17.074516 0.0040676413 0)
(14.06506 0.002685133 0)
(11.453699 0.0017427338 0)
(9.2214412 0.0011099344 0)
(7.3272352 0.0006902759 0)
(5.7263069 0.00041591155 0)
(4.3767545 0.00023984148 0)
(3.241314 0.00012971037 0)
(2.2875246 6.3447635e-05 0)
(1.4874077 2.5926947e-05 0)
(0.81700809 7.2895644e-06 0)
(0.25591341 5.1495201e-07 0)
(29.279512 -0.0078206795 0)
(29.430463 -0.021823248 0)
(29.912781 -0.029285164 0)
(30.811653 -0.020120893 0)
(32.118313 -0.0031333072 0)
(33.740411 0.01504237 0)
(35.447931 0.028633739 0)
(37.04414 0.037608228 0)
(38.269539 0.040198095 0)
(39.031323 0.038196158 0)
(39.213592 0.034631089 0)
(38.452693 0.030628107 0)
(36.750419 0.026267849 0)
(34.354699 0.021410054 0)
(31.297987 0.016590151 0)
(27.746172 0.012225225 0)
(24.0386 0.0087189309 0)
(20.420472 0.0060290759 0)
(17.054247 0.0040635837 0)
(14.048218 0.002682901 0)
(11.440026 0.0017416409 0)
(9.2105058 0.0011095052 0)
(7.3186053 0.00069025854 0)
(5.7196028 0.00041612577 0)
(4.371656 0.00024015122 0)
(3.2375536 0.00013007366 0)
(2.2848796 6.3748984e-05 0)
(1.4856926 2.609046e-05 0)
(0.81606816 7.3365667e-06 0)
(0.25561966 5.1724289e-07 0)
(29.267852 -0.007816786 0)
(29.418113 -0.021745266 0)
(29.897609 -0.029291405 0)
(30.792566 -0.020223693 0)
(32.09554 -0.0032513249 0)
(33.715322 0.014914571 0)
(35.42195 0.028540976 0)
(37.018559 0.037524952 0)
(38.245328 0.040140184 0)
(39.008112 0.038148725 0)
(39.190705 0.034596195 0)
(38.429604 0.030598382 0)
(36.726728 0.026241716 0)
(34.329422 0.021385763 0)
(31.270803 0.016568468 0)
(27.718767 0.012207711 0)
(24.012627 0.0087051456 0)
(20.397013 0.0060187727 0)
(17.03399 0.0040562689 0)
(14.031386 0.0026779776 0)
(11.426359 0.0017382725 0)
(9.1995743 0.0011071407 0)
(7.3099773 0.0006885692 0)
(5.7128994 0.00041490722 0)
(4.3665574 0.00023927137 0)
(3.2337928 0.0001294074 0)
(2.2822342 6.3298443e-05 0)
(1.4839771 2.5857915e-05 0)
(0.81512797 7.264552e-06 0)
(0.25532582 5.0974138e-07 0)
(29.256226 -0.0078137641 0)
(29.405795 -0.021670098 0)
(29.882454 -0.029300397 0)
(30.773486 -0.020329229 0)
(32.072767 -0.0033735031 0)
(33.690223 0.014781013 0)
(35.395951 0.028443294 0)
(36.992955 0.037436868 0)
(38.221093 0.040077795 0)
(38.984878 0.038096765 0)
(39.167797 0.034557184 0)
(38.406497 0.03056543 0)
(36.70302 0.026213406 0)
(34.304132 0.021360566 0)
(31.243615 0.016546162 0)
(27.69137 0.01218975 0)
(23.986672 0.0086919913 0)
(20.373577 0.0060098513 0)
(17.013761 0.0040508742 0)
(14.014579 0.0026750424 0)
(11.412714 0.0017369679 0)
(9.1886599 0.0011068137 0)
(7.3013627 0.00068880289 0)
(5.7062063 0.00041542293 0)
(4.3614665 0.00023988082 0)
(3.2300377 0.00013003966 0)
(2.2795926 6.3802013e-05 0)
(1.4822641 2.6143344e-05 0)
(0.81418916 7.3561126e-06 0)
(0.2550324 5.1843016e-07 0)
(29.244634 -0.0078116228 0)
(29.393509 -0.021597543 0)
(29.867315 -0.029311598 0)
(30.754412 -0.020437638 0)
(32.049994 -0.003499698 0)
(33.665113 0.014643766 0)
(35.369934 0.028342646 0)
(36.967327 0.037344666 0)
(38.196834 0.040011104 0)
(38.96162 0.038040397 0)
(39.144869 0.034513713 0)
(38.383372 0.030528303 0)
(36.679295 0.026180198 0)
(34.27883 0.021329464 0)
(31.216425 0.016519771 0)
(27.663982 0.012169026 0)
(23.960733 0.0086758915 0)
(20.350164 0.0059979442 0)
(16.993555 0.00404231 0)
(13.997793 0.002668963 0)
(11.399085 0.0017326765 0)
(9.1777581 0.001103795 0)
(7.2927577 0.00068661419 0)
(5.6995204 0.00041379937 0)
(4.3563809 0.00023868097 0)
(3.2262863 0.00012911722 0)
(2.2769537 6.3174199e-05 0)
(1.4805527 2.5822417e-05 0)
(0.81325124 7.2622768e-06 0)
(0.25473926 5.1111345e-07 0)
(29.233074 -0.0078102261 0)
(29.381252 -0.021527043 0)
(29.85219 -0.029324988 0)
(30.735344 -0.02054879 0)
(32.027223 -0.0036292381 0)
(33.639992 0.014502581 0)
(35.3439 0.028239061 0)
(36.941678 0.037249151 0)
(38.172552 0.039941432 0)
(38.93834 0.037981131 0)
(39.121919 0.034467675 0)
(38.360231 0.030488836 0)
(36.655556 0.026145338 0)
(34.253516 0.021297731 0)
(31.189234 0.01649319 0)
(27.636605 0.012148265 0)
(23.934813 0.0086601778 0)
(20.326776 0.0059867203 0)
(16.973375 0.0040347134 0)
(13.981029 0.002664193 0)
(11.385475 0.0017298173 0)
(9.1668705 0.0011021887 0)
(7.2841634 0.00068583146 0)
(5.6928425 0.0004135259 0)
(4.3513012 0.00023869237 0)
(3.2225391 0.00012931738 0)
(2.2743176 6.3395362e-05 0)
(1.4788432 2.5950093e-05 0)
(0.81231426 7.2962741e-06 0)
(0.25444639 5.1122073e-07 0)
(29.221545 -0.0078094699 0)
(29.369024 -0.021458653 0)
(29.837082 -0.029340332 0)
(30.716285 -0.02066281 0)
(32.004454 -0.0037623007 0)
(33.614862 0.014358451 0)
(35.317849 0.02813341 0)
(36.916008 0.037151768 0)
(38.148247 0.039870654 0)
(38.915036 0.037920553 0)
(39.098949 0.034420375 0)
(38.337073 0.030447869 0)
(36.631802 0.026109828 0)
(34.228194 0.021265654 0)
(31.162045 0.016464058 0)
(27.60924 0.012123935 0)
(23.908915 0.0086411352 0)
(20.303415 0.0059723933 0)
(16.953224 0.0040244781 0)
(13.964292 0.0026571842 0)
(11.371885 0.0017249873 0)
(9.1559992 0.0010988329 0)
(7.2755813 0.0006834876 0)
(5.6861736 0.00041188118 0)
(4.3462281 0.00023754009 0)
(3.2187966 0.0001284698 0)
(2.2716847 6.2839465e-05 0)
(1.4771356 2.5674759e-05 0)
(0.81137833 7.2183238e-06 0)
(0.25415385 5.0636732e-07 0)
(29.210046 -0.0078093754 0)
(29.356824 -0.021392913 0)
(29.821991 -0.029357574 0)
(30.697234 -0.020778151 0)
(31.981688 -0.0038978472 0)
(33.589724 0.014211542 0)
(35.291782 0.028025717 0)
(36.890315 0.037052039 0)
(38.123918 0.039798509 0)
(38.891709 0.037858682 0)
(39.075959 0.034372002 0)
(38.313898 0.030406123 0)
(36.608035 0.026073398 0)
(34.202863 0.021232952 0)
(31.134859 0.01643655 0)
(27.581893 0.012102814 0)
(23.883044 0.0086255036 0)
(20.280088 0.0059616288 0)
(16.933109 0.0040177153 0)
(13.947588 0.0026532627 0)
(11.358324 0.0017229753 0)
(9.1451514 0.001097987 0)
(7.2670183 0.00068336268 0)
(5.6795197 0.00041216853 0)
(4.3411665 0.00023800665 0)
(3.2150625 0.00012902424 0)
(2.2690577 6.3303605e-05 0)
(1.4754319 2.5935247e-05 0)
(0.81044453 7.2935129e-06 0)
(0.25386198 5.099793e-07 0)
(29.198575 -0.0078099222 0)
(29.344649 -0.021329926 0)
(29.806914 -0.029376763 0)
(30.678192 -0.020894742 0)
(31.958925 -0.004035644 0)
(33.564577 0.014062354 0)
(35.2657 0.027917096 0)
(36.864601 0.036951111 0)
(38.099565 0.039725005 0)
(38.868359 0.03779533 0)
(39.052947 0.034322355 0)
(38.290706 0.03036339 0)
(36.584254 0.026035374 0)
(34.177523 0.021198054 0)
(31.107674 0.016407327 0)
(27.554558 0.012079666 0)
(23.857194 0.0086074345 0)
(20.256787 0.0059482179 0)
(16.91302 0.0040079828 0)
(13.930907 0.0026463343 0)
(11.344782 0.0017180917 0)
(9.1343178 0.0010945659 0)
(7.2584661 0.00068091007 0)
(5.672874 0.0004103831 0)
(4.336111 0.0002367196 0)
(3.211333 0.00012805122 0)
(2.2664339 6.2648484e-05 0)
(1.4737302 2.5607115e-05 0)
(0.80951185 7.2035133e-06 0)
(0.25357045 5.060224e-07 0)
(29.187131 -0.0078109245 0)
(29.3325 -0.021268991 0)
(29.791852 -0.029397926 0)
(30.65916 -0.021013452 0)
(31.936168 -0.0041758644 0)
(33.539424 0.013911224 0)
(35.239603 0.027807404 0)
(36.838868 0.036848302 0)
(38.07519 0.039649958 0)
(38.844985 0.03773071 0)
(39.029914 0.034272193 0)
(38.267498 0.030320571 0)
(36.560459 0.025998422 0)
(34.152175 0.021164699 0)
(31.080494 0.016378016 0)
(27.52724 0.012055821 0)
(23.83137 0.0085893932 0)
(20.233518 0.0059352096 0)
(16.892966 0.0039990714 0)
(13.914257 0.0026405913 0)
(11.331266 0.0017145459 0)
(9.1235058 0.0010925008 0)
(7.249931 0.00067982149 0)
(5.6662416 0.00040991164 0)
(4.3310656 0.0002366104 0)
(3.2076109 0.00012818627 0)
(2.2638153 6.2834445e-05 0)
(1.4720319 2.5716134e-05 0)
(0.80858098 7.2296316e-06 0)
(0.25327948 5.0442217e-07 0)
(29.175713 -0.0078122253 0)
(29.320375 -0.021209926 0)
(29.776806 -0.029421294 0)
(30.640138 -0.021134273 0)
(31.913417 -0.0043185022 0)
(33.514265 0.013757467 0)
(35.213495 0.027696278 0)
(36.813117 0.03674395 0)
(38.050793 0.03957423 0)
(38.821589 0.037665324 0)
(39.006861 0.034221428 0)
(38.244274 0.030276524 0)
(36.536651 0.025960076 0)
(34.12682 0.021130061 0)
(31.053319 0.016347527 0)
(27.499939 0.012031173 0)
(23.805573 0.0085701524 0)
(20.210282 0.0059207404 0)
(16.872945 0.003988788 0)
(13.897637 0.0026335517 0)
(11.317774 0.0017097006 0)
(9.1127127 0.0010891609 0)
(7.2414104 0.00067750974 0)
(5.6596201 0.00040829851 0)
(4.3260282 0.00023548974 0)
(3.2038945 0.00012737345 0)
(2.2612006 6.2308746e-05 0)
(1.470336 2.5460852e-05 0)
(0.80765146 7.1609145e-06 0)
(0.25298893 5.0169646e-07 0)
(29.164321 -0.0078138507 0)
(29.308273 -0.02115324 0)
(29.761776 -0.029446628 0)
(30.621129 -0.021256883 0)
(31.890673 -0.0044636786 0)
(33.489101 0.013601905 0)
(35.187374 0.02758422 0)
(36.787348 0.036638661 0)
(38.026374 0.039498615 0)
(38.798169 0.03760022 0)
(38.983786 0.034171348 0)
(38.221032 0.030233378 0)
(36.512829 0.025922416 0)
(34.101456 0.021096379 0)
(31.026146 0.016319922 0)
(27.472655 0.012010307 0)
(23.779801 0.0085546377 0)
(20.187078 0.0059101192 0)
(16.852959 0.0039821068 0)
(13.881048 0.0026296957 0)
(11.304309 0.0017077209 0)
(9.1019419 0.0010883133 0)
(7.2329079 0.00067737435 0)
(5.6530131 0.00040856897 0)
(4.321002 0.00023593367 0)
(3.2001865 0.00012790854 0)
(2.2585919 6.2761524e-05 0)
(1.4686441 2.571452e-05 0)
(0.80672404 7.2299786e-06 0)
(0.25269903 5.027501e-07 0)
(29.152952 -0.0078159859 0)
(29.296194 -0.021099323 0)
(29.746763 -0.029474 0)
(30.602133 -0.021380068 0)
(31.867938 -0.0046105119 0)
(33.463935 0.013444183 0)
(35.161244 0.027471533 0)
(36.761561 0.036531945 0)
(38.001933 0.039421989 0)
(38.774727 0.03753451 0)
(38.960691 0.034121009 0)
(38.197774 0.03019012 0)
(36.488994 0.02588445 0)
(34.076084 0.021061878 0)
(30.998977 0.016290239 0)
(27.445386 0.011985971 0)
(23.754053 0.0085357031 0)
(20.163902 0.0058960309 0)
(16.833001 0.0039718325 0)
(13.864484 0.0026223928 0)
(11.290865 0.0017025917 0)
(9.0911874 0.0010847239 0)
(7.2244181 0.00067481931 0)
(5.6464158 0.00040673587 0)
(4.3159832 0.00023462535 0)
(3.196484 0.00012692274 0)
(2.2559871 6.2102142e-05 0)
(1.4669546 2.5388142e-05 0)
(0.805798 7.1442426e-06 0)
(0.25240955 5.0099488e-07 0)
(29.141606 -0.0078187504 0)
(29.284137 -0.021047783 0)
(29.731765 -0.02950317 0)
(30.583151 -0.02150497 0)
(31.845213 -0.0047595501 0)
(33.438765 0.013284828 0)
(35.135105 0.027358814 0)
(36.735759 0.036424675 0)
(37.977473 0.039344653 0)
(38.751264 0.037468173 0)
(38.937575 0.034070422 0)
(38.1745 0.030146768 0)
(36.465147 0.025847392 0)
(34.050707 0.021028346 0)
(30.971815 0.016260556 0)
(27.418136 0.011961986 0)
(23.728335 0.008517643 0)
(20.140763 0.0058829678 0)
(16.813081 0.0039629079 0)
(13.847956 0.0026166109 0)
(11.27745 0.0016990085 0)
(9.0804571 0.0010826343 0)
(7.2159475 0.00067370702 0)
(5.6398334 0.00040624581 0)
(4.3109758 0.00023450638 0)
(3.1927898 0.00012705444 0)
(2.253388 6.2284889e-05 0)
(1.4652689 2.5492003e-05 0)
(0.80487401 7.1656427e-06 0)
(0.25212073 4.977533e-07 0)
(29.130281 -0.0078220938 0)
(29.2721 -0.020998199 0)
(29.716782 -0.02953423 0)
(30.564183 -0.02163178 0)
(31.822498 -0.0049107258 0)
(33.413595 0.013123294 0)
(35.108958 0.027245168 0)
(36.709944 0.036315848 0)
(37.952993 0.039266724 0)
(38.727778 0.037401155 0)
(38.91444 0.034019109 0)
(38.151209 0.030102098 0)
(36.441285 0.02580837 0)
(34.02532 0.0209929 0)
(30.944655 0.016230402 0)
(27.390902 0.01193839 0)
(23.702641 0.0084990466 0)
(20.117654 0.0058690164 0)
(16.793192 0.0039530221 0)
(13.831455 0.0026098213 0)
(11.264058 0.0016943158 0)
(9.069744 0.0010793935 0)
(7.20749 0.00067144947 0)
(5.6332608 0.00040465875 0)
(4.3059755 0.00023340064 0)
(3.1891007 0.00012624262 0)
(2.2507924 6.175297e-05 0)
(1.4635855 2.5234344e-05 0)
(0.80395125 7.0997964e-06 0)
(0.25183228 4.970411e-07 0)
(29.118977 -0.0078259981 0)
(29.260082 -0.020950856 0)
(29.701818 -0.029567066 0)
(30.545231 -0.021760281 0)
(31.799796 -0.0050643251 0)
(33.388425 0.012959609 0)
(35.082805 0.027131059 0)
(36.684114 0.036206549 0)
(37.928494 0.039189542 0)
(38.704271 0.03733511 0)
(38.891284 0.033969237 0)
(38.127902 0.030059463 0)
(36.417409 0.025771343 0)
(33.999925 0.020960133 0)
(30.917499 0.016203386 0)
(27.363684 0.011917351 0)
(23.676972 0.0084833634 0)
(20.094575 0.0058582432 0)
(16.773336 0.0039461541 0)
(13.814983 0.0026058174 0)
(11.250691 0.0016922134 0)
(9.0590521 0.0010784529 0)
(7.1990498 0.00067125024 0)
(5.6267021 0.00040487591 0)
(4.3009859 0.00023380371 0)
(3.1854197 0.00012675705 0)
(2.2482026 6.2194769e-05 0)
(1.4619057 2.5479541e-05 0)
(0.8030305 7.1622744e-06 0)
(0.25154444 4.9571118e-07 0)
(29.107692 -0.0078305654 0)
(29.248084 -0.020906369 0)
(29.686872 -0.029601663 0)
(30.526296 -0.021889478 0)
(31.777108 -0.0052195659 0)
(33.363256 0.012794393 0)
(35.056646 0.027016891 0)
(36.658272 0.036096472 0)
(37.903976 0.039112111 0)
(38.680744 0.037269064 0)
(38.868108 0.033919662 0)
(38.104578 0.030017372 0)
(36.393521 0.025734888 0)
(33.974523 0.02092682 0)
(30.890349 0.016173641 0)
(27.336483 0.011892434 0)
(23.651329 0.0084640995 0)
(20.071529 0.0058438698 0)
(16.753512 0.0039356346 0)
(13.798541 0.0025983596 0)
(11.237347 0.0016869936 0)
(9.0483793 0.0010748051 0)
(7.1906245 0.00066866613 0)
(5.6201549 0.00040303156 0)
(4.2960052 0.0002324914 0)
(3.1817451 0.00012577274 0)
(2.2456174 6.1541756e-05 0)
(1.4602289 2.5160665e-05 0)
(0.80211136 7.0816785e-06 0)
(0.25125711 4.9554024e-07 0)
(29.096426 -0.0078358661 0)
(29.236102 -0.020864823 0)
(29.671942 -0.029637969 0)
(30.507379 -0.02201872 0)
(31.754434 -0.0053762254 0)
(33.338089 0.012627082 0)
(35.030485 0.026902776 0)
(36.63242 0.035985381 0)
(37.879442 0.039033778 0)
(38.657196 0.037202258 0)
(38.844914 0.033869356 0)
(38.081239 0.029974187 0)
(36.36962 0.02569768 0)
(33.949115 0.020892836 0)
(30.863203 0.016144674 0)
(27.309302 0.011870269 0)
(23.625715 0.0084473894 0)
(20.048517 0.00583178 0)
(16.733725 0.0039274299 0)
(13.782132 0.0025930435 0)
(11.224034 0.001683696 0)
(9.0377303 0.001072878 0)
(7.1822184 0.00066764646 0)
(5.6136226 0.00040260158 0)
(4.2910358 0.00023240284 0)
(3.1780789 0.00012591392 0)
(2.2430379 6.1728745e-05 0)
(1.4585559 2.5266645e-05 0)
(0.8011943 7.102313e-06 0)
(0.25097044 4.9147698e-07 0)
(29.085176 -0.0078417808 0)
(29.224137 -0.020825425 0)
(29.657027 -0.02967602 0)
(30.488479 -0.022149616 0)
(31.731775 -0.0055346888 0)
(33.312925 0.0124581 0)
(35.00432 0.026788321 0)
(36.606558 0.035873699 0)
(37.854891 0.03895558 0)
(38.633629 0.037135576 0)
(38.821699 0.033819175 0)
(38.057882 0.029930712 0)
(36.345703 0.025659936 0)
(33.923696 0.020859008 0)
(30.836059 0.01611604 0)
(27.282133 0.011847519 0)
(23.600122 0.0084294044 0)
(20.025532 0.0058183424 0)
(16.713965 0.0039179266 0)
(13.765747 0.0025864881 0)
(11.210738 0.0016791547 0)
(9.0270959 0.0010697479 0)
(7.1738233 0.00066546288 0)
(5.6070987 0.00040106879 0)
(4.2860727 0.0002313418 0)
(3.1744173 0.00012513871 0)
(2.2404618 6.1221585e-05 0)
(1.456885 2.5020821e-05 0)
(0.80027837 7.0398532e-06 0)
(0.25068411 4.9123861e-07 0)
(29.073942 -0.0078481527 0)
(29.212187 -0.020787907 0)
(29.642131 -0.029715804 0)
(30.469599 -0.022281783 0)
(31.709133 -0.0056950816 0)
(33.287765 0.012286435 0)
(34.978155 0.026673125 0)
(36.580687 0.035760887 0)
(37.830325 0.038877838 0)
(38.610043 0.037069883 0)
(38.798466 0.033770828 0)
(38.03451 0.029889931 0)
(36.321773 0.025625169 0)
(33.898269 0.0208285 0)
(30.808919 0.016090004 0)
(27.254981 0.011826373 0)
(23.574556 0.0084138047 0)
(20.002579 0.005807705 0)
(16.694239 0.0039111896 0)
(13.749394 0.0025826338 0)
(11.197471 0.0016772104 0)
(9.0164846 0.0010689605 0)
(7.1654472 0.00066539909 0)
(5.60059 0.00040140095 0)
(4.2811214 0.00023184223 0)
(3.1707646 0.00012573124 0)
(2.2378918 6.1715e-05 0)
(1.4552181 2.5290323e-05 0)
(0.79936468 7.1048772e-06 0)
(0.25039847 4.8801016e-07 0)
(29.062723 -0.007854992 0)
(29.200252 -0.020752845 0)
(29.627254 -0.02975702 0)
(30.450739 -0.022414796 0)
(31.68651 -0.0058573089 0)
(33.262609 0.012112922 0)
(34.951989 0.026557819 0)
(36.554808 0.035647526 0)
(37.805743 0.038799855 0)
(38.586438 0.03700402 0)
(38.775216 0.033722531 0)
(38.011122 0.029849064 0)
(36.297831 0.025589658 0)
(33.872836 0.020795385 0)
(30.781785 0.016060846 0)
(27.227846 0.011803006 0)
(23.549016 0.0083957702 0)
(19.979658 0.0057941259 0)
(16.674545 0.003901178 0)
(13.733069 0.0025755186 0)
(11.184226 0.0016721907 0)
(9.0058917 0.0010654132 0)
(7.1570854 0.00066285737 0)
(5.5940923 0.00039954814 0)
(4.2761784 0.00023050039 0)
(3.1671179 0.00012470884 0)
(2.2353262 6.102686e-05 0)
(1.4535541 2.4953056e-05 0)
(0.79845255 7.0231031e-06 0)
(0.25011334 4.8998333e-07 0)
(29.051517 -0.0078624105 0)
(29.18833 -0.020720766 0)
(29.612395 -0.029799719 0)
(30.4319 -0.022547404 0)
(31.663905 -0.0060205872 0)
(33.237459 0.01193764 0)
(34.925825 0.026442685 0)
(36.528923 0.035533054 0)
(37.781148 0.038720877 0)
(38.562815 0.036937373 0)
(38.751946 0.033673766 0)
(37.987718 0.029807564 0)
(36.273875 0.025553796 0)
(33.847394 0.020762878 0)
(30.754653 0.016033678 0)
(27.200727 0.011782391 0)
(23.5235 0.008380108 0)
(19.956767 0.0057828326 0)
(16.654884 0.0038935496 0)
(13.716774 0.0025705747 0)
(11.171007 0.0016691286 0)
(8.9953198 0.0010636261 0)
(7.1487406 0.00066192387 0)
(5.587608 0.0003991745 0)
(4.2712457 0.00023044821 0)
(3.1634789 0.00012489086 0)
(2.232766 6.1248223e-05 0)
(1.4518936 2.5074769e-05 0)
(0.79754235 7.0458657e-06 0)
(0.2498288 4.8455089e-07 0)
(29.040323 -0.0078703722 0)
(29.176421 -0.020691269 0)
(29.597552 -0.029843744 0)
(30.413081 -0.022680035 0)
(31.64132 -0.0061852173 0)
(33.212314 0.011760153 0)
(34.899662 0.026327151 0)
(36.503033 0.035417789 0)
(37.756539 0.03864186 0)
(38.539174 0.036870831 0)
(38.728658 0.033625295 0)
(37.964296 0.029766127 0)
(36.249902 0.02551804 0)
(33.82194 0.020731302 0)
(30.727521 0.016006402 0)
(27.17362 0.011759684 0)
(23.498004 0.0083621344 0)
(19.9339 0.0057694194 0)
(16.635248 0.0038840161 0)
(13.700501 0.0025639144 0)
(11.157806 0.0016644486 0)
(8.9847617 0.0010603552 0)
(7.1404063 0.00065960504 0)
(5.5811317 0.00039752403 0)
(4.2663189 0.00022927822 0)
(3.1598442 0.0001239982 0)
(2.2302088 6.0652124e-05 0)
(1.450235 2.4788978e-05 0)
(0.79663316 6.9784774e-06 0)
(0.24954457 4.8714003e-07 0)
(29.029139 -0.0078786618 0)
(29.164522 -0.020663662 0)
(29.582726 -0.029889235 0)
(30.394284 -0.02281387 0)
(31.618755 -0.0063515116 0)
(33.187176 0.011580673 0)
(34.873503 0.026210985 0)