/*--------------------------------*- C++ -*----------------------------------*\
| =========                 |                                                 |
| \\      /  F ield         | OpenFOAM: The Open Source CFD Toolbox           |
|  \\    /   O peration     | Version:  v2012                                 |
|   \\  /    A nd           | Website:  www.openfoam.com                      |
|    \\/     M anipulation  |                                                 |
\*---------------------------------------------------------------------------*/
FoamFile
{
    version     2.0;
    format      ascii;
    class       volScalarField;
    location    "400";
    object      alphat;
}
// * * * * * * * * * * * * * * * * * * * * * * * * * * * * * * * * * * * * * //

dimensions      [1 -1 -1 0 0 0 0];


internalField   nonuniform List<scalar> 
24000
(
0.00087892569
0.00023908119
0.00019242991
0.00014087546
6.9235801e-05
6.4873034e-05
6.4456313e-05
5.1263393e-05
3.7594934e-05
2.6836564e-05
2.200698e-05
9.2124127e-06
3.9700062e-06
2.3032289e-06
1.3161671e-06
7.7764215e-07
4.4723547e-07
2.2707794e-07
9.1978672e-08
3.2450902e-08
1.0233563e-08
2.9399764e-09
7.7290641e-10
1.8363815e-10
3.8254203e-11
6.6666494e-12
9.6770106e-13
2.0858576e-13
1.6174339e-13
1.7206501e-13
0.00087869277
0.00023613249
0.00018822065
0.00013418111
6.8404097e-05
6.4329088e-05
6.4283573e-05
5.1347158e-05
3.7704855e-05
2.6941758e-05
2.2051914e-05
9.2525036e-06
3.980965e-06
2.305058e-06
1.3191473e-06
7.8043191e-07
4.4935015e-07
2.2819351e-07
9.2461686e-08
3.2623312e-08
1.0287856e-08
2.9557125e-09
7.7712608e-10
1.8466756e-10
3.8478245e-11
6.7120322e-12
9.8052646e-13
2.1748247e-13
1.7114593e-13
1.8202496e-13
0.00087846155
0.00023757205
0.00019161935
0.0001389415
6.9649272e-05
6.4587601e-05
6.4113734e-05
5.1192862e-05
3.7588e-05
2.6837366e-05
2.2054638e-05
9.2624261e-06
3.9846764e-06
2.3060455e-06
1.3199506e-06
7.8105077e-07
4.4976513e-07
2.2894753e-07
9.2869117e-08
3.2794155e-08
1.0346685e-08
2.9732294e-09
7.8178163e-10
1.8577512e-10
3.8706732e-11
6.7487247e-12
9.822457e-13
2.1421632e-13
1.6711023e-13
1.7774429e-13
0.00087822504
0.00023840749
0.00019299814
0.00014037849
7.0049443e-05
6.4480796e-05
6.3986142e-05
5.1110264e-05
3.75247e-05
2.6777328e-05
2.2034423e-05
9.2571606e-06
3.9843997e-06
2.3058951e-06
1.3195878e-06
7.807512e-07
4.4947093e-07
2.2854812e-07
9.2638764e-08
3.2692994e-08
1.0310675e-08
2.9622512e-09
7.7881834e-10
1.8506381e-10
3.8558967e-11
6.7243211e-12
9.8028379e-13
2.1538745e-13
1.6868103e-13
1.7941438e-13
0.00087798247
0.00023937164
0.00019421248
0.00014140844
7.029545e-05
6.4391209e-05
6.3906062e-05
5.1045639e-05
3.7469633e-05
2.6726512e-05
2.2004468e-05
9.245745e-06
3.9827498e-06
2.3041661e-06
1.318628e-06
7.8027663e-07
4.4922625e-07
2.2846554e-07
9.2616028e-08
3.2687692e-08
1.0309473e-08
2.961961e-09
7.7874743e-10
1.8504773e-10
3.8555627e-11
6.7234894e-12
9.7982636e-13
2.1494155e-13
1.681901e-13
1.7889223e-13
0.00087773333
0.00024013852
0.000195011
0.00014202333
7.0483803e-05
6.4289729e-05
6.3840816e-05
5.0987864e-05
3.7416619e-05
2.6678427e-05
2.1969169e-05
9.2302244e-06
3.979906e-06
2.3023158e-06
1.3175066e-06
7.79604e-07
4.4878243e-07
2.2813971e-07
9.2460578e-08
3.2626659e-08
1.0289028e-08
2.9559155e-09
7.7714095e-10
1.8466546e-10
3.8476324e-11
6.7099031e-12
9.7806587e-13
2.1476759e-13
1.6814054e-13
1.7884e-13
0.00087747718
0.00024075699
0.00019558643
0.00014247982
7.0656958e-05
6.4192616e-05
6.3781408e-05
5.0933815e-05
3.7365515e-05
2.6633269e-05
2.1930793e-05
9.2125166e-06
3.9764895e-06
2.3001169e-06
1.316199e-06
7.7882461e-07
4.4828403e-07
2.2779704e-07
9.2302934e-08
3.2566555e-08
1.0269297e-08
2.9501548e-09
7.7562189e-10
1.8430572e-10
3.8401861e-11
6.6970747e-12
9.7628977e-13
2.1446089e-13
1.6793384e-13
1.7862041e-13
0.00087721372
0.00024125607
0.00019602203
0.00014285901
7.0823754e-05
6.4098312e-05
6.3722206e-05
5.0881193e-05
3.7315575e-05
2.6588235e-05
2.1890601e-05
9.19349e-06
3.9727298e-06
2.2977947e-06
1.3148154e-06
7.7799075e-07
4.4774719e-07
2.2742015e-07
9.2128036e-08
3.2499426e-08
1.0247155e-08
2.9436699e-09
7.739084e-10
1.8389937e-10
3.8317679e-11
6.682578e-12
9.743017e-13
2.1413882e-13
1.677278e-13
1.7840151e-13
0.0008769427
0.00024167455
0.0001963797
0.00014320472
7.0989042e-05
6.4006346e-05
6.3662983e-05
5.0829356e-05
3.7266453e-05
2.6544788e-05
2.1849311e-05
9.1736901e-06
3.968786e-06
2.2953946e-06
1.3133863e-06
7.7712664e-07
4.4719115e-07
2.2702972e-07
9.1947004e-08
3.2430007e-08
1.0224274e-08
2.9369712e-09
7.7213878e-10
1.8347976e-10
3.8230743e-11
6.6675976e-12
9.7223633e-13
2.1379259e-13
1.6749984e-13
1.7815923e-13
0.00087666399
0.00024204101
0.00019669434
0.00014353571
7.1154344e-05
6.3916035e-05
6.3603631e-05
5.0777956e-05
3.7217807e-05
2.6502024e-05
2.1807303e-05
9.1534183e-06
3.9647417e-06
2.2929609e-06
1.3119362e-06
7.7624702e-07
4.466245e-07
2.2663046e-07
9.1761669e-08
3.235889e-08
1.0200825e-08
2.9301048e-09
7.7032472e-10
1.8304959e-10
3.814162e-11
6.652239e-12
9.7011746e-13
2.1343593e-13
1.6726418e-13
1.7790871e-13
0.00087637748
0.00024237557
0.00019698609
0.00014386069
7.1320337e-05
6.3827077e-05
6.3544268e-05
5.0726808e-05
3.716943e-05
2.6459526e-05
2.1764829e-05
9.1328576e-06
3.9606468e-06
2.2905143e-06
1.3104778e-06
7.7536096e-07
4.4605352e-07
2.2622743e-07
9.1574532e-08
3.2287077e-08
1.0177146e-08
2.9231712e-09
7.684929e-10
1.826152e-10
3.8051619e-11
6.6367263e-12
9.6797456e-13
2.1307233e-13
1.6702237e-13
1.7765161e-13
0.00087608315
0.00024269134
0.00019726608
0.00014418369
7.1487298e-05
6.3739129e-05
6.348484e-05
5.0675857e-05
3.7121219e-05
2.6417044e-05
2.172203e-05
9.1121145e-06
3.9565298e-06
2.2880683e-06
1.3090189e-06
7.7447352e-07
4.4548136e-07
2.2582286e-07
9.1386599e-08
3.2214942e-08
1.0153358e-08
2.9162056e-09
7.666526e-10
1.8217881e-10
3.7961204e-11
6.6211413e-12
9.6582022e-13
2.127052e-13
1.6677732e-13
1.7739101e-13
0.00087578096
0.00024299658
0.00019754037
0.00014450652
7.1655317e-05
6.3652078e-05
6.3425375e-05
5.0624996e-05
3.7073084e-05
2.6374545e-05
2.1678991e-05
9.0912498e-06
3.9524071e-06
2.2856313e-06
1.3075648e-06
7.735882e-07
4.4491033e-07
2.2541846e-07
9.1198706e-08
3.2142821e-08
1.0129576e-08
2.9092416e-09
7.6481276e-10
1.8174253e-10
3.7870809e-11
6.6055582e-12
9.6366442e-13
2.1233603e-13
1.6652995e-13
1.7712791e-13
0.0008754709
0.00024329633
0.0001978122
0.00014482986
7.1824432e-05
6.3565787e-05
6.3365875e-05
5.0574213e-05
3.7024999e-05
2.6332023e-05
2.1635757e-05
9.0703006e-06
3.9482894e-06
2.283208e-06
1.3061179e-06
7.7270646e-07
4.4434127e-07
2.2501479e-07
9.1011079e-08
3.2070789e-08
1.0105821e-08
2.9022856e-09
7.6297507e-10
1.8130677e-10
3.7780527e-11
6.5899943e-12
9.6151037e-13
2.1196608e-13
1.6628145e-13
1.7686359e-13
0.00087515298
0.00024359352
0.0001980834
0.00014515413
7.1994667e-05
6.3480143e-05
6.3306292e-05
5.0523485e-05
3.6976947e-05
2.6289482e-05
2.1592363e-05
9.049292e-06
3.9441838e-06
2.2808009e-06
1.3046802e-06
7.7182977e-07
4.4377522e-07
2.2461273e-07
9.0824167e-08
3.1999029e-08
1.0082156e-08
2.8953561e-09
7.6114441e-10
1.8087268e-10
3.7690587e-11
6.5744879e-12
9.5936293e-13
2.1159589e-13
1.6603207e-13
1.7659831e-13
0.00087482723
0.00024388968
0.00019835479
0.00014547949
7.2166035e-05
6.339521e-05
6.3246682e-05
5.0472755e-05
3.6928893e-05
2.6246912e-05
2.1548829e-05
9.0282394e-06
3.9400948e-06
2.2784121e-06
1.3032526e-06
7.7095867e-07
4.4321246e-07
2.2421247e-07
9.0638033e-08
3.1927559e-08
1.0058585e-08
2.8884541e-09
7.59321e-10
1.8044031e-10
3.7601006e-11
6.559043e-12
9.5722318e-13
2.1122611e-13
1.6578245e-13
1.7633274e-13
0.00087449365
0.00024418553
0.00019862668
0.00014580595
7.233854e-05
6.3310847e-05
6.3186995e-05
5.0422042e-05
3.6880844e-05
2.6204313e-05
2.1505168e-05
9.007154e-06
3.9360255e-06
2.2760433e-06
1.3018364e-06
7.7009401e-07
4.4265357e-07
2.2381439e-07
9.0452891e-08
3.1856471e-08
1.0035142e-08
2.8815897e-09
7.5750758e-10
1.8001032e-10
3.7511915e-11
6.5436812e-12
9.5509368e-13
2.108568e-13
1.6553249e-13
1.760668e-13
0.00087415227
0.00024448149
0.00019889921
0.00014613346
7.2512142e-05
6.3227025e-05
6.3127227e-05
5.0371351e-05
3.683279e-05
2.6161689e-05
2.1461392e-05
8.9860423e-06
3.9319778e-06
2.2736952e-06
1.3004317e-06
7.6923566e-07
4.4209832e-07
2.234183e-07
9.026861e-08
3.1785701e-08
1.0011802e-08
2.8747553e-09
7.5570208e-10
1.7958221e-10
3.7423217e-11
6.5283872e-12
9.5297299e-13
2.1048831e-13
1.6528268e-13
1.7580101e-13
0.00087380313
0.0002447779
0.00019917249
0.00014646195
7.268687e-05
6.3143812e-05
6.3067412e-05
5.0320627e-05
3.6784718e-05
2.6119038e-05
2.1417502e-05
8.9649091e-06
3.9279535e-06
2.2713684e-06
1.299039e-06
7.6838416e-07
4.4154718e-07
2.2302463e-07
9.0085418e-08
3.1715348e-08
9.9885997e-09
2.8679614e-09
7.5390729e-10
1.7915663e-10
3.7335042e-11
6.5131819e-12
9.5086345e-13
2.101206e-13
1.6503281e-13
1.7553514e-13
0.00087344627
0.00024507495
0.00019944649
0.00014679136
7.286269e-05
6.3061096e-05
6.3007501e-05
5.0269922e-05
3.6736639e-05
2.6076357e-05
2.13735e-05
8.9437565e-06
3.9239538e-06
2.2690631e-06
1.2976585e-06
7.6753951e-07
4.4100008e-07
2.226333e-07
8.9903261e-08
3.1645382e-08
9.9655235e-09
2.8612041e-09
7.5212215e-10
1.7873334e-10
3.7247338e-11
6.4980574e-12
9.4876449e-13
2.0975406e-13
1.6478337e-13
1.752697e-13
0.00087308172
0.00024537274
0.00019972125
0.0001471216
7.3039608e-05
6.2978944e-05
6.2947533e-05
5.0219179e-05
3.6688538e-05
2.6033648e-05
2.1329389e-05
8.9225863e-06
3.9199797e-06
2.2667805e-06
1.2962908e-06
7.6670217e-07
4.4045737e-07
2.2224455e-07
8.9722278e-08
3.1575869e-08
9.9425981e-09
2.8544913e-09
7.5034877e-10
1.7831283e-10
3.716021e-11
6.483031e-12
9.4667794e-13
2.0938849e-13
1.6453397e-13
1.7500431e-13
0.00087270953
0.00024567132
0.00019999676
0.00014745266
7.3217644e-05
6.2897333e-05
6.2887488e-05
5.0168433e-05
3.6640423e-05
2.5990909e-05
2.1285168e-05
8.9013986e-06
3.9160319e-06
2.2645207e-06
1.2949358e-06
7.6587179e-07
4.3991868e-07
2.2185805e-07
8.954227e-08
3.1506715e-08
9.9197887e-09
2.8478121e-09
7.4858423e-10
1.7789443e-10
3.7073518e-11
6.4680795e-12
9.4460133e-13
2.0902409e-13
1.6428507e-13
1.7473944e-13
0.00087232975
0.00024597067
0.00020027298
0.00014778444
7.3396714e-05
6.2816174e-05
6.2827357e-05
5.0117684e-05
3.6592301e-05
2.5948148e-05
2.124084e-05
8.8801957e-06
3.9121117e-06
2.2622839e-06
1.2935936e-06
7.6504876e-07
4.3938439e-07
2.2147418e-07
8.9363453e-08
3.1438017e-08
9.8971299e-09
2.841177e-09
7.4683136e-10
1.7747878e-10
3.6987395e-11
6.4532247e-12
9.4253704e-13
2.0866077e-13
1.6403636e-13
1.7447477e-13
0.00087194243
0.00024627078
0.00020054988
0.00014811697
7.3576912e-05
6.2735637e-05
6.2767183e-05
5.0066898e-05
3.6544151e-05
2.5905363e-05
2.1196402e-05
8.858977e-06
3.9082198e-06
2.2600703e-06
1.2922643e-06
7.6423288e-07
4.3885429e-07
2.2109277e-07
8.918572e-08
3.1369725e-08
9.8746031e-09
2.8345803e-09
7.4508855e-10
1.7706551e-10
3.6901762e-11
6.4384541e-12
9.4048383e-13
2.0829873e-13
1.6378817e-13
1.7421063e-13
0.00087154765
0.00024657159
0.00020082737
0.00014845024
7.3758208e-05
6.2655595e-05
6.2706926e-05
5.0016093e-05
3.6495986e-05
2.5862556e-05
2.1151854e-05
8.837743e-06
3.9043577e-06
2.2578811e-06
1.2909484e-06
7.6342461e-07
4.3832869e-07
2.2071399e-07
8.9009187e-08
3.1301895e-08
9.8522305e-09
2.8280291e-09
7.4335783e-10
1.7665511e-10
3.6816724e-11
6.4237846e-12
9.3844351e-13
2.0793781e-13
1.6354016e-13
1.7394669e-13
0.00087114547
0.00024687305
0.00020110542
0.00014878414
7.3940536e-05
6.2576018e-05
6.2646594e-05
4.9965295e-05
3.6447804e-05
2.5819729e-05
2.1107193e-05
8.8164939e-06
3.9005271e-06
2.2557164e-06
1.2896458e-06
7.6262354e-07
4.378072e-07
2.2033752e-07
8.8833643e-08
3.1234427e-08
9.829974e-09
2.8215113e-09
7.4163587e-10
1.7624678e-10
3.6732115e-11
6.4091891e-12
9.3641304e-13
2.0757809e-13
1.6329269e-13
1.7368332e-13
0.00087073595
0.00024717509
0.00020138405
0.00014911886
7.4124037e-05
6.2497079e-05
6.2586202e-05
4.9914435e-05
3.6399596e-05
2.5776882e-05
2.1062417e-05
8.7952304e-06
3.8967312e-06
2.2535764e-06
1.2883566e-06
7.6183002e-07
4.3729018e-07
2.1996369e-07
8.8659286e-08
3.1167412e-08
9.807867e-09
2.8150374e-09
7.3992548e-10
1.7584119e-10
3.6648069e-11
6.3946894e-12
9.3439477e-13
2.0721942e-13
1.630454e-13
1.7342013e-13
0.0008703192
0.00024747764
0.00020166314
0.00014945416
7.4308577e-05
6.2418604e-05
6.2525751e-05
4.9863591e-05
3.6351385e-05
2.5734025e-05
2.1017525e-05
8.7739541e-06
3.8929752e-06
2.2514616e-06
1.287081e-06
7.6104392e-07
4.3677747e-07
2.1959236e-07
8.8486025e-08
3.1100805e-08
9.7858922e-09
2.8086017e-09
7.3822512e-10
1.7543796e-10
3.6564512e-11
6.3802732e-12
9.3238763e-13
2.068622e-13
1.6279882e-13
1.7315768e-13
0.00086989528
0.00024778078
0.00020194276
0.00014979005
7.4494204e-05
6.2340679e-05
6.2465231e-05
4.9812713e-05
3.630315e-05
2.5691153e-05
2.0972514e-05
8.7526681e-06
3.8892681e-06
2.2493734e-06
1.2858194e-06
7.6026568e-07
4.3626938e-07
2.1922373e-07
8.831399e-08
3.103467e-08
9.7640744e-09
2.8022124e-09
7.3653704e-10
1.7503765e-10
3.6481558e-11
6.3659598e-12
9.3039355e-13
2.0650607e-13
1.6255238e-13
1.7289538e-13
0.00086946429
0.00024808464
0.00020222297
0.00015012668
7.468096e-05
6.2263347e-05
6.2404661e-05
4.9761799e-05
3.6254892e-05
2.5648274e-05
2.0927382e-05
8.7313744e-06
3.8856253e-06
2.2473123e-06
1.2845718e-06
7.5949485e-07
4.3576548e-07
2.1885742e-07
8.8142941e-08
3.0968893e-08
9.7423706e-09
2.7958557e-09
7.348575e-10
1.7463935e-10
3.6399019e-11
6.351718e-12
9.2840902e-13
2.0615114e-13
1.6230651e-13
1.7263369e-13
0.00086902635
0.00024838931
0.0002025036
0.00015046374
7.4868738e-05
6.2186457e-05
6.2344037e-05
4.9710896e-05
3.6206632e-05
2.5605398e-05
2.0882123e-05
8.7100783e-06
3.8820758e-06
2.2452791e-06
1.2833386e-06
7.5873188e-07
4.3526617e-07
2.184938e-07
8.7973096e-08
3.0903574e-08
9.7208181e-09
2.7895434e-09
7.3318965e-10
1.7424382e-10
3.6317051e-11
6.3375732e-12
9.2643694e-13
2.0579738e-13
1.6206093e-13
1.723723e-13
0.00086858155
0.00024869487
0.0002027848
0.00015080159
7.5057708e-05
6.2110215e-05
6.2283335e-05
4.9659933e-05
3.6158336e-05
2.5562517e-05
2.083673e-05
8.6887814e-06
3.8786718e-06
2.2432744e-06
1.2821201e-06
7.5797659e-07
4.3477124e-07
2.1813271e-07
8.7804355e-08
3.0838665e-08
9.6993978e-09
2.7832693e-09
7.3153183e-10
1.7385065e-10
3.6235571e-11
6.323512e-12
9.2447597e-13
2.0544506e-13
1.6181604e-13
1.7211163e-13
0.00086813001
0.0002490012
0.00020306645
0.00015114002
7.5247725e-05
6.2034503e-05
6.2222611e-05
4.9608945e-05
3.6110019e-05
2.5519619e-05
2.0791278e-05
8.6675362e-06
3.8755094e-06
2.2412986e-06
1.2809172e-06
7.5722954e-07
4.3428104e-07
2.1777432e-07
8.7636832e-08
3.0774224e-08
9.6781336e-09
2.7770414e-09
7.2988629e-10
1.734604e-10
3.6154697e-11
6.3095541e-12
9.2252817e-13
2.0509386e-13
1.6157132e-13
1.7185113e-13
0.00086767185
0.00024930809
0.00020334845
0.00015147899
7.5438831e-05
6.1959284e-05
6.2161814e-05
4.9557962e-05
3.6061697e-05
2.5476702e-05
2.0745781e-05
8.6463287e-06
3.8727648e-06
2.2393469e-06
1.2797302e-06
7.5649037e-07
4.3379512e-07
2.1741825e-07
8.7470278e-08
3.071013e-08
9.6569791e-09
2.7708447e-09
7.2824884e-10
1.7307206e-10
3.6074215e-11
6.2956638e-12
9.2058947e-13
2.0474386e-13
1.6132722e-13
1.7159129e-13
0.00086720721
0.00024961542
0.00020363096
0.00015181873
7.5631084e-05
6.1884743e-05
6.2100987e-05
4.950692e-05
3.6013344e-05
2.5433765e-05
2.0700222e-05
8.6250569e-06
3.8707659e-06
2.2374023e-06
1.2785601e-06
7.5575973e-07
4.3331394e-07
2.1706489e-07
8.7304925e-08
3.0646491e-08
9.6359741e-09
2.7646918e-09
7.2662296e-10
1.7268645e-10
3.5994298e-11
6.2818697e-12
9.1866308e-13
2.04395e-13
1.6108338e-13
1.7133173e-13
0.00086673624
0.00024992315
0.00020391401
0.00015215911
7.5824397e-05
6.181069e-05
6.2040148e-05
4.9455861e-05
3.596498e-05
2.539082e-05
2.0654584e-05
8.603665e-06
3.8698013e-06
2.2354544e-06
1.2774078e-06
7.5503775e-07
4.3283737e-07
2.1671411e-07
8.7140674e-08
3.0583256e-08
9.6150986e-09
2.7585761e-09
7.2500679e-10
1.7230312e-10
3.591485e-11
6.2681558e-12
9.1674739e-13
2.0404759e-13
1.6084027e-13
1.7107293e-13
0.00086625909
0.0002502314
0.00020419767
0.00015250041
7.6018909e-05
6.1737218e-05
6.1979203e-05
4.9404794e-05
3.5916605e-05
2.5347863e-05
2.0608853e-05
8.5821186e-06
3.8701507e-06
2.2334959e-06
1.276275e-06
7.543254e-07
4.3236589e-07
2.1636614e-07
8.697767e-08
3.0520497e-08
9.5943808e-09
2.7525069e-09
7.2340299e-10
1.7192274e-10
3.5836011e-11
6.2545457e-12
9.1484493e-13
2.0370127e-13
1.6059732e-13
1.7081429e-13
0.00086577592
0.00025054021
0.00020448193
0.00015284243
7.6214508e-05
6.166438e-05
6.1918278e-05
4.9353646e-05
3.5868194e-05
2.5304894e-05
2.0563022e-05
8.5604365e-06
3.8720003e-06
2.2315284e-06
1.2751632e-06
7.5362276e-07
4.3189915e-07
2.160206e-07
8.6815652e-08
3.0458084e-08
9.5737713e-09
2.7464683e-09
7.2180704e-10
1.7154419e-10
3.575755e-11
6.2410007e-12
9.129513e-13
2.0335624e-13
1.6035509e-13
1.7055641e-13
0.00086528692
0.00025084965
0.00020476685
0.00015318522
7.6411242e-05
6.1592069e-05
6.1857304e-05
4.9302494e-05
3.5819779e-05
2.5261926e-05
2.0517091e-05
8.5386666e-06
3.8754794e-06
2.2295585e-06
1.2740751e-06
7.5293109e-07
4.3143781e-07
2.1567798e-07
8.6654888e-08
3.039614e-08
9.5533146e-09
2.7404742e-09
7.2022285e-10
1.7116842e-10
3.5679662e-11
6.2275531e-12
9.1107013e-13
2.0301234e-13
1.601131e-13
1.702988e-13
0.00086479227
0.0002511597
0.00020505236
0.00015352871
7.660905e-05
6.1520316e-05
6.179629e-05
4.9251316e-05
3.5771359e-05
2.5218966e-05
2.0471075e-05
8.5169123e-06
3.8805802e-06
2.2276043e-06
1.2730135e-06
7.5225112e-07
4.3098187e-07
2.1533815e-07
8.6495271e-08
3.0334608e-08
9.5329885e-09
2.7345174e-09
7.1864829e-10
1.707949e-10
3.5602235e-11
6.2141843e-12
9.0919949e-13
2.0266988e-13
1.5987187e-13
1.7004196e-13
0.00086429217
0.00025147033
0.00020533833
0.00015387279
7.6808017e-05
6.1449216e-05
6.1735296e-05
4.9200075e-05
3.572291e-05
2.5176007e-05
2.0424998e-05
8.4953114e-06
3.8871804e-06
2.2256939e-06
1.271983e-06
7.5158453e-07
4.3053204e-07
2.1500142e-07
8.6336959e-08
3.0273563e-08
9.5128225e-09
2.7286075e-09
7.1708622e-10
1.7042435e-10
3.5525425e-11
6.2009204e-12
9.0734219e-13
2.0232852e-13
1.5963076e-13
1.6978526e-13
0.00086378685
0.00025178147
0.00020562471
0.00015421764
7.7008176e-05
6.1378681e-05
6.1674257e-05
4.9148805e-05
3.5674449e-05
2.5133062e-05
2.0378891e-05
8.4740168e-06
3.895062e-06
2.2238599e-06
1.2709874e-06
7.5093213e-07
4.300882e-07
2.1466744e-07
8.6179683e-08
3.0212866e-08
9.4927615e-09
2.7227267e-09
7.155315e-10
1.700555e-10
3.5448961e-11
6.1877162e-12
9.0549297e-13
2.0198832e-13
1.5939032e-13
1.6952926e-13
0.00086327652
0.00025209309
0.00020591153
0.00015456317
7.7209386e-05
6.13087e-05
6.1613195e-05
4.9097522e-05
3.5625991e-05
2.5090134e-05
2.0332796e-05
8.4531781e-06
3.9039384e-06
2.2221384e-06
1.2700322e-06
7.5029597e-07
4.2965137e-07
2.1433683e-07
8.6023757e-08
3.0152654e-08
9.4728557e-09
2.7168905e-09
7.1398845e-10
1.696894e-10
3.5373062e-11
6.1746077e-12
9.0365594e-13
2.0164919e-13
1.5915006e-13
1.6927347e-13
0.00086276143
0.00025240526
0.00020619891
0.00015490958
7.7411884e-05
6.1239507e-05
6.1552083e-05
4.9046125e-05
3.5577521e-05
2.5047222e-05
2.0286754e-05
8.4329148e-06
3.9134942e-06
2.2205638e-06
1.2691223e-06
7.4967747e-07
4.2922188e-07
2.140096e-07
8.5869108e-08
3.0092877e-08
9.4530835e-09
2.7110916e-09
7.1245492e-10
1.6932549e-10
3.529761e-11
6.1615753e-12
9.0182906e-13
2.0131148e-13
1.5891057e-13
1.6901847e-13
0.00086224184
0.00025271799
0.00020648672
0.00015525655
7.7615428e-05
6.1170876e-05
6.1490909e-05
4.8994724e-05
3.5529069e-05
2.5004339e-05
2.0240808e-05
8.4133075e-06
3.9234159e-06
2.2191672e-06
1.2682637e-06
7.4907898e-07
4.2880083e-07
2.1368623e-07
8.571596e-08
3.0033633e-08
9.4334808e-09
2.7053416e-09
7.109342e-10
1.6896461e-10
3.522278e-11
6.1486484e-12
9.0001558e-13
2.0097488e-13
1.5867122e-13
1.6876362e-13
0.00086171802
0.00025303137
0.00020677514
0.00015560424
7.7820106e-05
6.1102883e-05
6.1429603e-05
4.8943315e-05
3.5480631e-05
2.4961481e-05
2.0194992e-05
8.394392e-06
3.9334156e-06
2.2179717e-06
1.2674608e-06
7.4850171e-07
4.2838842e-07
2.1336653e-07
8.5564092e-08
2.9974795e-08
9.4139957e-09
2.6996229e-09
7.0942122e-10
1.6860548e-10
3.5148303e-11
6.1357812e-12
8.9821011e-13
2.0063944e-13
1.5843253e-13
1.6850947e-13
0.00086119027
0.00025334548
0.00020706419
0.00015595268
7.8025979e-05
6.1035687e-05
6.1368217e-05
4.8891859e-05
3.5432193e-05
2.491865e-05
2.0149334e-05
8.3761643e-06
3.9432475e-06
2.2169927e-06
1.2667184e-06
7.4794794e-07
4.2798591e-07
2.1305122e-07
8.5413855e-08
2.991651e-08
9.3946806e-09
2.693952e-09
7.0792048e-10
1.682492e-10
3.5074405e-11
6.1230115e-12
8.96417e-13
2.0030509e-13
1.5819406e-13
1.6825555e-13
0.0008606589
0.00025366034
0.00020735376
0.00015630153
7.8232942e-05
6.0969003e-05
6.1306718e-05
4.884044e-05
3.5383774e-05
2.4875856e-05
2.0103856e-05
8.3585937e-06
3.9527143e-06
2.2162374e-06
1.2660397e-06
7.4741914e-07
4.2759389e-07
2.1274046e-07
8.5265237e-08
2.9858747e-08
9.3755191e-09
2.6883225e-09
7.0643008e-10
1.6789525e-10
3.5000976e-11
6.1103206e-12
8.9463436e-13
1.9997224e-13
1.5795641e-13
1.6800248e-13
0.00086012423
0.00025397597
0.00020764395
0.00015665124
7.8441176e-05
6.0903145e-05
6.124505e-05
4.8788978e-05
3.533536e-05
2.4833086e-05
2.0058574e-05
8.3416366e-06
3.9616691e-06
2.2157074e-06
1.2654281e-06
7.469174e-07
4.2721359e-07
2.1243481e-07
8.5118498e-08
2.9801615e-08
9.3565499e-09
2.6827467e-09
7.0495342e-10
1.675445e-10
3.4928196e-11
6.0977388e-12
8.9286541e-13
1.9964045e-13
1.5771884e-13
1.677495e-13
0.0008595866
0.00025429217
0.00020793459
0.00015700162
7.8650522e-05
6.0837978e-05
6.1183346e-05
4.8737498e-05
3.5286942e-05
2.4790343e-05
2.0013495e-05
8.3252573e-06
3.9700156e-06
2.2153988e-06
1.2648847e-06
7.4644342e-07
4.2684522e-07
2.1213413e-07
8.497344e-08
2.9744992e-08
9.3377215e-09
2.6772069e-09
7.0348534e-10
1.6719562e-10
3.4855782e-11
6.0852178e-12
8.911045e-13
1.9930985e-13
1.5748196e-13
1.6749724e-13
0.00085904639
0.00025460881
0.00020822558
0.00015735263
7.8861069e-05
6.0773569e-05
6.1121483e-05
4.8686021e-05
3.5238547e-05
2.4747636e-05
1.9968623e-05
8.3094621e-06
3.977711e-06
2.2153085e-06
1.2644102e-06
7.4599885e-07
4.264901e-07
2.1183928e-07
8.4830483e-08
2.9689054e-08
9.319095e-09
2.6717219e-09
7.0203089e-10
1.6684984e-10
3.4783987e-11
6.0727994e-12
8.8935647e-13
1.9898039e-13
1.5724532e-13
1.6724524e-13
0.00085850399
0.00025492582
0.00020851693
0.00015770433
7.9072731e-05
6.0709929e-05
6.1059533e-05
4.863455e-05
3.5190165e-05
2.4704956e-05
1.9923948e-05
8.2942442e-06
3.9847736e-06
2.2154304e-06
1.2640041e-06
7.4558429e-07
4.2614866e-07
2.1155041e-07
8.4689639e-08
2.9633777e-08
9.3006565e-09
2.6662859e-09
7.0058828e-10
1.6650666e-10
3.47127e-11
6.0604644e-12
8.8761921e-13
1.9865237e-13
1.5700942e-13
1.66994e-13
0.00085795981
0.00025524319
0.00020880873
0.00015805689
7.928561e-05
6.0647034e-05
6.0997509e-05
4.8583029e-05
3.5141784e-05
2.4662296e-05
1.9879443e-05
8.2793684e-06
3.9912338e-06
2.2157251e-06
1.2636652e-06
7.4520083e-07
4.2582198e-07
2.1126812e-07
8.4551195e-08
2.9579285e-08
9.2824493e-09
2.6609125e-09
6.9916121e-10
1.6616699e-10
3.4642112e-11
6.0482446e-12
8.8589621e-13
1.9832547e-13
1.5677363e-13
1.6674288e-13
0.00085741427
0.00025556103
0.00020910102
0.00015841037
7.9499688e-05
6.0584832e-05
6.0935335e-05
4.8531536e-05
3.5093416e-05
2.4619658e-05
1.9835077e-05
8.264709e-06
3.9971061e-06
2.2161632e-06
1.2633904e-06
7.4484814e-07
4.2551005e-07
2.1099229e-07
8.4415002e-08
2.9525479e-08
9.2644308e-09
2.6555865e-09
6.9774519e-10
1.6582967e-10
3.4571969e-11
6.0360963e-12
8.8418236e-13
1.9799983e-13
1.5653853e-13
1.6649249e-13
0.00085686782
0.00025587947
0.00020939384
0.00015876451
7.9714908e-05
6.0523364e-05
6.0873064e-05
4.8480021e-05
3.5045055e-05
2.4577035e-05
1.9790815e-05
8.2501464e-06
4.002368e-06
2.2167135e-06
1.2631763e-06
7.4452667e-07
4.2521384e-07
2.1072367e-07
8.4281471e-08
2.9472537e-08
9.2466632e-09
2.6503272e-09
6.963454e-10
1.6549595e-10
3.4502528e-11
6.0240622e-12
8.8248254e-13
1.976754e-13
1.5630367e-13
1.6624236e-13
0.00085632096
0.00025619862
0.00020968733
0.00015911954
7.9931416e-05
6.0462746e-05
6.0810689e-05
4.8428464e-05
3.4996697e-05
2.4534421e-05
1.9746619e-05
8.2355639e-06
4.0069215e-06
2.2173378e-06
1.2630179e-06
7.4423571e-07
4.2493336e-07
2.1046234e-07
8.4150607e-08
2.9420443e-08
9.2291368e-09
2.6451302e-09
6.9496046e-10
1.6516544e-10
3.4433701e-11
6.0121264e-12
8.8079509e-13
1.9735253e-13
1.5606958e-13
1.65993e-13
0.00085577419
0.00025651842
0.0002099814
0.00015947522
8.0148999e-05
6.0402759e-05
6.07482e-05
4.8376933e-05
3.4948359e-05
2.4491818e-05
1.9702454e-05
8.2208872e-06
4.0107865e-06
2.218006e-06
1.2629105e-06
7.4397505e-07
4.2466919e-07
2.1020874e-07
8.4022672e-08
2.9369318e-08
9.2118955e-09
2.6400097e-09
6.9359424e-10
1.6483909e-10
3.4365687e-11
6.0003225e-12
8.7912374e-13
1.9703095e-13
1.5583565e-13
1.6574383e-13
0.00085522804
0.00025683885
0.00021027604
0.00015983168
8.0367811e-05
6.0343571e-05
6.0685575e-05
4.8325363e-05
3.4900026e-05
2.4449214e-05
1.9658291e-05
8.2060508e-06
4.0140322e-06
2.2186905e-06
1.2628479e-06
7.4374303e-07
4.2442078e-07
2.0996259e-07
8.389748e-08
2.931906e-08
9.1948982e-09
2.6349513e-09
6.9224251e-10
1.6451581e-10
3.4298247e-11
5.988609e-12
8.7746355e-13
1.9671072e-13
1.5560238e-13
1.6549535e-13
0.00085468308
0.0002571598
0.00021057111
0.00016018896
8.0587845e-05
6.0285219e-05
6.0622881e-05
4.8273777e-05
3.4851703e-05
2.4406605e-05
1.9614099e-05
8.1910066e-06
4.0167073e-06
2.2193678e-06
1.262824e-06
7.4353872e-07
4.2418848e-07
2.0972439e-07
8.3775376e-08
2.9269831e-08
9.1782041e-09
2.6299737e-09
6.9091043e-10
1.6419685e-10
3.4231642e-11
5.9770292e-12
8.7581947e-13
1.9639178e-13
1.5536928e-13
1.6524704e-13
0.00085413991
0.00025748123
0.00021086659
0.00016054698
8.0809048e-05
6.0227538e-05
6.0560054e-05
4.8222187e-05
3.4803397e-05
2.4363994e-05
1.9569857e-05
8.1757232e-06
4.018852e-06
2.2200175e-06
1.2628323e-06
7.4336022e-07
4.2397176e-07
2.0949406e-07
8.3656323e-08
2.9221612e-08
9.1618044e-09
2.6250736e-09
6.8959692e-10
1.6388191e-10
3.41658e-11
5.9655704e-12
8.7419034e-13
1.9607462e-13
1.55137e-13
1.6499958e-13
0.00085359915
0.00025780316
0.00021116257
0.00016090594
8.1031498e-05
6.0170687e-05
6.0497086e-05
4.8170582e-05
3.4755094e-05
2.4321366e-05
1.9525548e-05
8.1601791e-06
4.0205122e-06
2.2206236e-06
1.2628668e-06
7.4320607e-07
4.2377056e-07
2.0927177e-07
8.3540513e-08
2.9174507e-08
9.1457409e-09
2.6202648e-09
6.8830595e-10
1.6357198e-10
3.4100934e-11
5.9542688e-12
8.7258019e-13
1.9575893e-13
1.5490487e-13
1.6475228e-13
0.00085306146
0.00025812565
0.00021145902
0.00016126557
8.1255151e-05
6.0114654e-05
6.0434036e-05
4.811893e-05
3.4706801e-05
2.4278723e-05
1.948116e-05
8.1443602e-06
4.0217175e-06
2.2211707e-06
1.2629207e-06
7.4307349e-07
4.2358369e-07
2.0905696e-07
8.3427672e-08
2.9128395e-08
9.1299693e-09
2.6155331e-09
6.8703344e-10
1.6326603e-10
3.4036822e-11
5.9430861e-12
8.7098449e-13
1.9544479e-13
1.5467337e-13
1.6450563e-13
0.00085252752
0.00025844881
0.00021175603
0.00016162594
8.1480013e-05
6.0059359e-05
6.0370843e-05
4.8067283e-05
3.4658528e-05
2.4236063e-05
1.9436688e-05
8.1282637e-06
4.0225061e-06
2.2216473e-06
1.2629877e-06
7.4296053e-07
4.2341086e-07
2.0884987e-07
8.3318044e-08
2.9083411e-08
9.1145424e-09
2.6108958e-09
6.8578437e-10
1.6296531e-10
3.3973726e-11
5.9320666e-12
8.6940845e-13
1.9513224e-13
1.5444209e-13
1.6425922e-13
0.00085199807
0.00025877277
0.00021205372
0.00016198712
8.1706037e-05
6.0004846e-05
6.030751e-05
4.8015618e-05
3.4610271e-05
2.4193382e-05
1.9392129e-05
8.1118917e-06
4.0229034e-06
2.2220425e-06
1.2630613e-06
7.4286434e-07
4.2325087e-07
2.0865004e-07
8.3211476e-08
2.90395e-08
9.0994435e-09
2.6063481e-09
6.8455743e-10
1.6266949e-10
3.3911577e-11
5.9211987e-12
8.6785106e-13
1.948217e-13
1.5421159e-13
1.640136e-13
0.00085147386
0.00025909763
0.00021235213
0.0001623491
8.1933311e-05
5.9951163e-05
6.0244058e-05
4.7963895e-05
3.4562013e-05
2.4150673e-05
1.9347487e-05
8.0952525e-06
4.0229393e-06
2.2223495e-06
1.2631362e-06
7.4278268e-07
4.2310304e-07
2.0845733e-07
8.3108026e-08
2.8996726e-08
9.0847034e-09
2.6019015e-09
6.8335611e-10
1.6237949e-10
3.3850577e-11
5.9105178e-12
8.6631634e-13
1.9451286e-13
1.539812e-13
1.6376809e-13
0.00085095569
0.00025942349
0.00021265116
0.00016271175
8.2161798e-05
5.9898257e-05
6.018047e-05
4.7912169e-05
3.4513771e-05
2.4107935e-05
1.9302766e-05
8.0783559e-06
4.0226347e-06
2.2225606e-06
1.263206e-06
7.4271209e-07
4.2296557e-07
2.0827083e-07
8.3007289e-08
2.8954926e-08
9.0702655e-09
2.5975384e-09
6.8217563e-10
1.6209413e-10
3.3790483e-11
5.8999824e-12
8.647994e-13
1.942058e-13
1.537514e-13
1.6352319e-13
0.00085044439
0.00025975027
0.00021295068
0.00016307507
8.239147e-05
5.9846112e-05
6.0116715e-05
4.7860417e-05
3.4465553e-05
2.4065175e-05
1.9257976e-05
8.0612173e-06
4.022013e-06
2.2226704e-06
1.2632654e-06
7.4265017e-07
4.228377e-07
2.0809053e-07
8.2909408e-08
2.89142e-08
9.0561745e-09
2.5932747e-09
6.8102069e-10
1.6181464e-10
3.3731555e-11
5.8896379e-12
8.6330578e-13
1.9390062e-13
1.5352186e-13
1.6327855e-13
0.00084994084
0.00026007783
0.00021325062
0.00016343934
8.2622436e-05
5.9794855e-05
6.0052841e-05
4.7808623e-05
3.4417335e-05
2.4022383e-05
1.921313e-05
8.0438521e-06
4.0210937e-06
2.2226748e-06
1.2633092e-06
7.4259371e-07
4.2271773e-07
2.0791566e-07
8.2814093e-08
2.8874449e-08
9.0424001e-09
2.5891019e-09
6.7988919e-10
1.6154053e-10
3.3673698e-11
5.879469e-12
8.6183401e-13
1.9359765e-13
1.5329303e-13
1.6303463e-13
0.00084944595
0.00026040607
0.0002135508
0.00016380423
8.2854624e-05
5.974439e-05
5.9988831e-05
4.7756798e-05
3.4369134e-05
2.3979564e-05
1.9168238e-05
8.0262792e-06
4.0198963e-06
2.2225719e-06
1.2633333e-06
7.4254036e-07
4.2260462e-07
2.0774583e-07
8.2721296e-08
2.8835698e-08
9.0289621e-09
2.5850287e-09
6.7878402e-10
1.612726e-10
3.3617098e-11
5.8695092e-12
8.6038804e-13
1.9329663e-13
1.5306429e-13
1.627908e-13
0.00084896067
0.00026073489
0.00021385133
0.00016416984
8.3088044e-05
5.9694715e-05
5.9924642e-05
4.7704967e-05
3.4320953e-05
2.3936719e-05
1.9123315e-05
8.0085177e-06
4.0184385e-06
2.2223596e-06
1.2633329e-06
7.4248666e-07
4.224963e-07
2.0757995e-07
8.2630515e-08
2.8797748e-08
9.0157925e-09
2.5810345e-09
6.7769967e-10
1.6100955e-10
3.3561484e-11
5.8597135e-12