/*--------------------------------*- C++ -*----------------------------------*\
| =========                 |                                                 |
| \\      /  F ield         | OpenFOAM: The Open Source CFD Toolbox           |
|  \\    /   O peration     | Version:  v2012                                 |
|   \\  /    A nd           | Website:  www.openfoam.com                      |
|    \\/     M anipulation  |                                                 |
\*---------------------------------------------------------------------------*/
FoamFile
{
    version     2.0;
    format      ascii;
    class       volScalarField;
    location    "400";
    object      k;
}
// * * * * * * * * * * * * * * * * * * * * * * * * * * * * * * * * * * * * * //

dimensions      [0 2 -2 0 0 0 0];


internalField   nonuniform List<scalar> 
24000
(
0.096327286
0.10817491
0.11585212
0.12499069
0.16647173
0.38060558
1.0298327
1.8261614
2.281966
2.0688274
1.4685775
0.9185378
0.91382386
1.181696
1.1918957
1.000373
0.72474593
0.45669912
0.2538293
0.12965408
0.062483061
0.028722111
0.012574112
0.0051826112
0.0019694792
0.00067159243
0.00021203993
0.00011805527
0.00032064766
0.0023132141
0.096331312
0.10817045
0.11583044
0.12492206
0.16605521
0.37741594
1.0214159
1.8152614
2.2722531
2.0632441
1.4667361
0.9169514
0.90989496
1.1780665
1.1899001
0.99994912
0.72522257
0.45738343
0.25439308
0.13002427
0.062695483
0.028832099
0.012626238
0.0052053549
0.0019786944
0.00067538044
0.00021459964
0.00012294355
0.00033885969
0.0024445381
0.096340511
0.10816872
0.11581376
0.12486404
0.16573909
0.37539913
1.0165427
1.8093258
2.2665166
2.0593868
1.465164
0.91611238
0.90807526
1.1757714
1.1883713
0.99949181
0.72560034
0.45824409
0.25515762
0.13052193
0.062969756
0.028968519
0.012688998
0.0052320463
0.0019889345
0.00067860425
0.00021483756
0.00012102404
0.00033068664
0.0023854607
0.096349236
0.10816763
0.11580088
0.12481563
0.16545529
0.37356674
1.0117978
1.8030766
2.2599145
2.0544618
1.4623341
0.91477422
0.90687301
1.1735736
1.1863009
0.99785546
0.72431865
0.45722581
0.25446958
0.13011791
0.062756465
0.028864614
0.012641801
0.0052121544
0.0019813251
0.00067612859
0.00021439804
0.00012167799
0.00033376684
0.0024077991
0.096357533
0.10816689
0.1157895
0.12476919
0.16517975
0.3717986
1.0071345
1.7967222
2.2533824
2.0492608
1.4589113
0.91315751
0.90597943
1.1716577
1.1843145
0.99629169
0.72330917
0.45670815
0.25424262
0.13002567
0.0627201
0.028850457
0.012636378
0.0052101406
0.0019806088
0.00067586915
0.0002142442
0.00012139639
0.00033271628
0.0024001966
0.096365493
0.10816665
0.11577941
0.12472451
0.1649112
0.37007097
1.0025294
1.7903597
2.246916
2.0439146
1.4551791
0.91129519
0.90520216
1.169946
1.1823641
0.99457075
0.72198962
0.45580585
0.25371395
0.12974702
0.062583578
0.02878724
0.012608647
0.0051987245
0.0019762896
0.00067441968
0.00021383263
0.00012128294
0.00033257588
0.0023992085
0.096373227
0.10816679
0.11577007
0.12468074
0.16464707
0.36836805
0.99794044
1.7840527
2.2404865
2.0384855
1.4512672
0.90931579
0.90451499
1.1683519
1.180448
0.99281814
0.72062287
0.45487438
0.25317648
0.12946911
0.062449821
0.028726182
0.012582146
0.0051878952
0.0019722094
0.00067304492
0.00021341753
0.0001210946
0.00033212545
0.0023959706
0.096380812
0.10816722
0.11576119
0.12463755
0.16438626
0.36668359
0.99336117
1.7777967
2.2340816
2.0330125
1.4472535
0.90726458
0.90388243
1.1668344
1.1785564
0.99104022
0.71920539
0.45388836
0.25259862
0.12916688
0.062303155
0.028658848
0.012552807
0.0051758748
0.0019676731
0.00067151647
0.00021296037
0.00012089993
0.00033168257
0.0023927892
0.0963883
0.10816785
0.11575258
0.12459473
0.16412807
0.36501399
0.98879327
1.7715739
2.2276934
2.0275124
1.4431805
0.90517326
0.90328785
1.1653674
1.1766856
0.98925497
0.71776766
0.45288147
0.25200633
0.12885654
0.062152442
0.028589639
0.012522648
0.005163519
0.0019630099
0.00066994437
0.00021248788
0.0001206925
0.00033119875
0.0023893108
0.096395726
0.10816862
0.11574413
0.12455221
0.16387206
0.36335727
0.98423685
1.7653745
2.2213183
2.0219997
1.4390698
0.90305854
0.90272033
1.163936
1.1748322
0.98746878
0.71631908
0.45186144
0.25140421
0.12854035
0.061998684
0.028518975
0.012491843
0.0051508948
0.0019582448
0.00066833768
0.00021200475
0.00012047975
0.00033070123
0.0023857331
0.096403109
0.10816948
0.11573578
0.12450992
0.16361795
0.36171208
0.97969194
1.7591926
2.214954
2.0164823
1.434938
0.90093069
0.90217316
1.1625307
1.1729942
0.98568653
0.71486779
0.45083657
0.25079822
0.12822184
0.061843721
0.02844774
0.012460784
0.0051381659
0.0019534397
0.00066671724
0.0002115169
0.00012026339
0.00033019235
0.0023820726
0.096410462
0.10817042
0.1157275
0.12446783
0.16336555
0.36007761
0.97515841
1.7530247
2.208599
2.0109644
1.4307937
0.89879547
0.90164207
1.1611459
1.1711704
0.98391061
0.71341774
0.44981057
0.25019083
0.12790237
0.061688227
0.028376245
0.012429609
0.0051253883
0.0019486161
0.00066509043
0.00021102683
0.00012004517
0.00032967745
0.0023783679
0.096417793
0.10817141
0.11571927
0.12442594
0.16311474
0.35845335
0.97063609
1.7468685
2.2022522
2.0054479
1.426642
0.89665624
0.90112436
1.1597779
1.1693596
0.98214253
0.71197161
0.44878621
0.24958406
0.12758313
0.061532824
0.028304788
0.012398449
0.005112617
0.0019437948
0.00066346421
0.00021053656
0.00011982586
0.00032915812
0.0023746308
0.096425106
0.10817246
0.11571109
0.12438422
0.16286542
0.35683887
0.96612504
1.7407226
2.1959131
1.9999343
1.4224856
0.89451498
0.90061833
1.1584244
1.1675612
0.98038296
0.71053054
0.44776444
0.24897847
0.12726439
0.061377639
0.028233423
0.012367328
0.0050998616
0.0019389796
0.00066184
0.00021004669
0.00011960611
0.00032863654
0.0023708769
0.096432402
0.10817355
0.11570294
0.12434267
0.16261753
0.35523396
0.96162512
1.7345859
2.1895811
1.9944242
1.4183265
0.89237308
0.90012277
1.1570837
1.1657748
0.97863259
0.70909584
0.4467467
0.24837515
0.12694683
0.061223018
0.028162318
0.01233632
0.0050871525
0.0019341817
0.00066022149
0.00020955824
0.0001193862
0.00032811315
0.0023671095
0.096439685
0.10817469
0.11569484
0.12430129
0.16237103
0.35363841
0.95713638
1.7284578
2.1832559
1.9889183
1.414166
0.8902314
0.89963687
1.155755
1.164
0.97689163
0.70766792
0.44573334
0.24777428
0.12663051
0.061068988
0.02809148
0.012305429
0.0050744909
0.0019294017
0.00065860897
0.0002090714
0.00011916647
0.00032758915
0.0023633372
0.096446956
0.10817587
0.11568677
0.12426007
0.16212588
0.35205206
0.95265893
1.722338
2.1769374
1.9834169
1.4100051
0.88809058
0.89915999
1.1544374
1.1622365
0.97516027
0.70624727
0.44472498
0.24717636
0.12631576
0.060915732
0.028021003
0.012274695
0.0050618941
0.0019246462
0.00065700456
0.00020858674
0.00011894696
0.00032706432
0.0023595588
0.096454215
0.1081771
0.11567875
0.12421901
0.16188206
0.35047486
0.9481926
1.716226
2.1706253
1.9779203
1.4058444
0.88595099
0.89869178
1.1531304
1.1604841
0.97343846
0.70483376
0.44372131
0.2465811
0.12600236
0.060763116
0.027950813
0.012244086
0.0050493485
0.00191991
0.00065540666
0.00020810389
0.00011872784
0.00032653961
0.0023557808
0.096461464
0.10817838
0.11567077
0.12417812
0.16163955
0.34890667
0.94373754
1.7101217
2.1643196
1.9724287
1.4016843
0.88381285
0.89823197
1.1518338
1.1587428
0.97172644
0.70342792
0.44272302
0.24598904
0.12569066
0.060611333
0.02788101
0.012213645
0.0050368719
0.0019151998
0.0006538174
0.00020762339
0.00011850911
0.00032601462
0.0023520006
0.096468704
0.1081797
0.11566283
0.12413739
0.16139832
0.34734746
0.9392938
1.7040248
2.1580203
1.9669422
1.3975249
0.88167629
0.89778038
1.1505473
1.1570124
0.97002422
0.70202974
0.44173001
0.24540006
0.12538056
0.060460322
0.027811558
0.012183357
0.0050244574
0.0019105129
0.00065223593
0.00020714509
0.00011829097
0.00032549025
0.0023482245
0.096475938
0.10818108
0.11565494
0.12409683
0.16115838
0.34579716
0.93486132
1.6979353
2.1517273
1.9614612
1.3933665
0.87954141
0.89733688
1.1492706
1.1552928
0.96833184
0.70063943
0.44074262
0.24481448
0.12507228
0.060310214
0.027742526
0.012153253
0.0050121187
0.0019058546
0.00065066399
0.00020666941
0.00011807331
0.00032496581
0.0023444477
0.096483166
0.1081825
0.1156471
0.12405643
0.16091971
0.34425571
0.93044029
1.6918532
2.1454406
1.9559858
1.3892093
0.87740827
0.89690148
1.1480038
1.1535841
0.96664917
0.69925666
0.43976034
0.24423184
0.12476551
0.060160821
0.027673817
0.012123288
0.0049998367
0.0019012177
0.00064909923
0.00020619578
0.00011785623
0.00032444212
0.0023406762
0.096490391
0.10818398
0.1156393
0.1240162
0.16068231
0.34272313
0.92603062
1.6857783
2.1391603
1.950516
1.3850536
0.87527704
0.89647411
1.1467468
1.1518862
0.96497641
0.69788186
0.43878375
0.24365262
0.12446058
0.060012331
0.027605526
0.012093507
0.0049876297
0.001896609
0.00064754386
0.00020572474
0.0001176397
0.00032391863
0.0023369059
0.096497615
0.10818552
0.11563156
0.12397614
0.16044616
0.3411993
0.92163241
1.6797106
2.1328862
1.9450522
1.3808997
0.87314774
0.89605479
1.1454996
1.150199
0.9633135
0.69651486
0.43781261
0.24307661
0.12415731
0.059864644
0.027537601
0.012063883
0.0049754872
0.0018920246
0.0006459966
0.00020525601
0.00011742382
0.00032339596
0.0023331411
0.096504841
0.10818712
0.11562388
0.12393625
0.16021127
0.33968425
0.91724582
1.6736501
2.1266185
1.9395945
1.3767474
0.87102038
0.89564363
1.144262
1.1485226
0.96166043
0.69515577
0.43684715
0.24250404
0.1238559
0.059717879
0.027470105
0.012034449
0.0049634226
0.0018874695
0.00064445916
0.00020478999
0.0001172085
0.00032287347
0.0023293775
0.09651207
0.10818877
0.11561626
0.12389653
0.15997763
0.33817792
0.9128707
1.6675968
2.1203572
1.9341431
1.3725972
0.86889504
0.89524087
1.1430345
1.146857
0.96001709
0.69380426
0.43588684
0.24193443
0.12355599
0.059571828
0.027402931
0.012005152
0.004951414
0.0018829356
0.00064292879
0.000204326
0.00011699378
0.0003223518
0.0023256197
0.096519305
0.1081905
0.1156087
0.12385699
0.15974524
0.33668029
0.90850724
1.6615507
2.1141023
1.928698
1.3684491
0.86677184
0.89484687
1.141817
1.1452023
0.95838369
0.69246071
0.43493219
0.24136823
0.12325791
0.059426671
0.02733617
0.011976037
0.0049394797
0.0018784296
0.00064140772
0.00020386457
0.00011677959
0.00032183031
0.0023218631
0.096526549
0.10819229
0.1156012
0.12381763
0.15951409
0.33519134
0.90415552
1.6555118
2.1078539
1.9232597
1.3643033
0.86465095
0.89446216
1.1406097
1.1435586
0.95676018
0.69112499
0.43398301
0.24080523
0.12296149
0.059282315
0.027269774
0.011947079
0.0049276094
0.0018739476
0.0006398947
0.00020340546
0.00011656615
0.00032131
0.0023181147
0.096533805
0.10819415
0.11559377
0.12377846
0.15928419
0.33371101
0.89981545
1.64948
2.1016119
1.9178283
1.3601603
0.86253268
0.89408757
1.1394129
1.1419259
0.95514663
0.68979725
0.43303954
0.2402457
0.12266694
0.059138892
0.027203813
0.011918313
0.0049158182
0.0018694955
0.00063839165
0.0002029491
0.00011635325
0.00032078979
0.0023143668
0.096541076
0.10819608
0.11558642
0.12373946
0.15905552
0.33223934
0.89548724
1.6434555
2.0953765
1.912404
1.3560203
0.86041733
0.89372466
1.1382272
1.1403043
0.9535429
0.6884771
0.4321012
0.2396891
0.12237388
0.058996168
0.027138165
0.01188968
0.004904081
0.0018650637
0.0006368954
0.00020249469
0.00011614094
0.00032027046
0.0023106253
0.096548366
0.10819809
0.11557914
0.12370066
0.1588281
0.33077621
0.89117087
1.6374382
2.0891476
1.9069872
1.3518836
0.8583055
0.89337589
1.1370535
1.1386943
0.95194926
0.68716494
0.43116854
0.23913592
0.12208265
0.058854344
0.027072934
0.01186123
0.0048924189
0.0018606601
0.00063540857
0.0002020429
0.00011592923
0.00031975153
0.0023068865
0.096555677
0.10820018
0.11557194
0.12366204
0.15860191
0.32932167
0.88686638
1.6314281
2.0829253
1.9015781
1.3477508
0.85619804
0.89304532
1.1358928
1.137096
0.95036572
0.68586064
0.43024133
0.23858592
0.12179307
0.058713316
0.027008065
0.011832937
0.0048808205
0.0018562805
0.00063392974
0.00020159341
0.00011571825
0.00031923373
0.0023031554
0.096563013
0.10820235
0.11556482
0.12362362
0.15837695
0.32787568
0.88257394
1.6254253
2.0767096
1.8961752
1.3436226
0.8540993
0.89273946
1.1347468
1.1355101
0.94879244
0.68456432
0.42931976
0.23803934
0.12150535
0.05857321
0.026943628
0.011804834
0.004869301
0.0018519308
0.0006324609
0.00020114667
0.00011550783
0.00031871607
0.0022994252
0.096570379
0.10820461
0.11555778
0.12358539
0.15815323
0.32643816
0.87829345
1.6194297
2.0705004
1.8907782
1.3394995
0.8520121
0.89246837
1.1336179
1.1339374
0.94722947
0.68327565
0.42840327
0.23749563
0.12121906
0.058433773
0.026879488
0.011776858
0.0048578324
0.0018476001
0.00063099846
0.00020070179
0.000115298
0.00031819938
0.002295702
0.096577777
0.10820695
0.11555084
0.12354736
0.15793073
0.32500917
0.87402502
1.6134413
2.064298
1.8853873
1.3353821
0.84993916
0.89224714
1.1325073
1.1323791
0.94567736
0.68199512
0.42749244
0.23695528
0.12093456
0.058295221
0.026815758
0.011749062
0.0048464376
0.0018432973
0.0006295453
0.00020025949
0.00011508875
0.000317683
0.0022919808
0.096585212
0.1082094
0.11554398
0.12350953
0.15770945
0.32358855
0.86976881
1.6074603
2.0581022
1.8800024
1.3312708
0.84788377
0.8920937
1.1314184
1.1308367
0.94413653
0.68072273
0.42658709
0.2364181
0.12065169
0.058157446
0.02675238
0.011721416
0.0048351041
0.0018390173
0.00062809979
0.00019981939
0.00011488022
0.00031716784
0.0022882681
0.096592688
0.10821193
0.11553722
0.1234719
0.1574894
0.32217639
0.8655247
1.6014864
2.0519131
1.8746239
1.3271662
0.84584985
0.89202882
1.1303549
1.1293122
0.94260766
0.67945881
0.42568752
0.23588438
0.12037069
0.058020596
0.026689434
0.011693962
0.0048238498
0.0018347674
0.00062666432
0.00019938206
0.00011467224
0.00031665276
0.002284556
0.096600209
0.10821457
0.11553056
0.12343448
0.15727057
0.32077263
0.86129285
1.5955199
2.0457308
1.8692518
1.323069
0.84384181
0.89207257
1.1293229
1.1278083
0.94109146
0.6782032
0.42479319
0.23535354
0.1200911
0.057884404
0.026626778
0.01166663
0.0048126443
0.0018305357
0.00062523494
0.00019894651
0.00011446489
0.00031613886
0.0022808521
0.096607782
0.10821731
0.115524
0.12339727
0.15705296
0.31937716
0.85707338
1.5895607
2.0395553
1.8638861
1.3189799
0.84186448
0.89224451
1.1283288
1.1263281
0.93958931
0.67695673
0.42390484
0.23482617
0.11981336
0.05774911
0.026564537
0.01163948
0.0048015135
0.0018263322
0.00062381496
0.00019851356
0.0001142581
0.00031562523
0.0022771502
0.096615409
0.10822016
0.11551754
0.12336027
0.15683657
0.31799011
0.85286619
1.5836086
2.0333866
1.8585271
1.3148996
0.83992262
0.89255976
1.1273807
1.1248752
0.93810249
0.67571967
0.42302233
0.23430207
0.11953726
0.057614595
0.026502646
0.011612479
0.004790443
0.0018221511
0.00062240245
0.00019808277
0.00011405204
0.00031511284
0.0022734567
0.096623096
0.10822312
0.11551119
0.12332349
0.1566214
0.31661128
0.84867142
1.577664
2.0272248
1.8531748
1.3108289
0.83802075
0.89302821
1.126487
1.1234535
0.93663269
0.67449273
0.4221461
0.23378155
0.11926305
0.057481013
0.026441191
0.011585671
0.0047794522
0.0018180003
0.00062100006
0.00019765476
0.00011384652
0.00031460047
0.0022697634
0.096630849
0.1082262
0.11550495
0.12328692
0.15640743
0.31524076
0.8444893
1.5717267
2.0210699
1.8478294
1.3067683
0.8361628
0.89365364
1.1256565
1.1220675
0.93518165
0.6732762
0.42127572
0.23326404
0.11899027
0.05734807
0.02638001
0.011558977
0.0047685063
0.001813866
0.0006196032
0.00019722837
0.00011364156
0.00031408914
0.0022660775
0.096638672
0.10822939
0.11549883
0.12325058
0.15619469
0.3138785
0.84031953
1.5657968
2.0149218
1.8424908
1.3027185
0.83435191
0.89443286
1.1248972
1.1207214
0.9337518
0.67207147
0.42041219
0.23275027
0.11871939
0.057216038
0.026319245
0.011532463
0.0047576342
0.0018097595
0.00061821556
0.00019680452
0.00011343712
0.00031357799
0.0022623928
0.096646572
0.10823271
0.11549284
0.12321446
0.15598315
0.31252444
0.83616264
1.5598741
2.0087807
1.837159
1.2986798
0.83258995
0.89535656
1.1242158
1.1194196
0.93234536
0.67087936
0.41955563
0.2322401
0.11845024
0.057084802
0.026258829
0.011506096
0.0047468209
0.0018056747
0.00061683511
0.00019638274
0.0001132334
0.00031306809
0.0022587166
0.096654554
0.10823616
0.11548696
0.12317857
0.15577283
0.31117865
0.83201831
1.5539591
2.0026465
1.8318341
1.2946527
0.83087753
0.89641007
1.1236171
1.1181658
0.9309648
0.66970122
0.41870682
0.23173403
0.11818317
0.056954556
0.026198867
0.011479927
0.0047360885
0.0018016204
0.00061546482
0.00019596374
0.00011303023
0.00031255824
0.0022550409
0.096662625
0.10823974
0.11548122
0.12314291
0.15556373
0.30984096
0.82788578
1.5480528
1.9965192
1.8265159
1.2906373
0.82921373
0.89757475
1.123104
1.1169637
0.92961239
0.66853785
0.41786564
0.23123164
0.11791774
0.056825022
0.026139202
0.011453878
0.0047254026
0.001797583
0.00061410008
0.00019554635
0.00011282761
0.00031204942
0.0022513724
0.09667079
0.10824346
0.11547561
0.12310748
0.15535583
0.30851149
0.82376545
1.5421551
1.9903989
1.8212043
1.2866334
0.82759626
0.89882936
1.1226769
1.1158158
0.9282907
0.66739105
0.41703333
0.23073373
0.11765449
0.056696488
0.02607998
0.011428018
0.0047147929
0.0017935739
0.00061274469
0.00019513153
0.00011262553
0.00031154081
0.0022477054
0.096679056
0.10824732
0.11547014
0.12307229
0.15514915
0.3071901
0.81965723
1.5362662
1.9842856
1.815899
1.2826406
0.82602162
0.9001514
1.1223338
1.1147242
0.92700187
0.66626204
0.41621032
0.23024035
0.1173933
0.056568869
0.026021149
0.011402318
0.0047042459
0.0017895877
0.00061139677
0.00019471884
0.0001124242
0.00031103358
0.0022440479
0.09668743
0.10825132
0.11546481
0.12303734
0.15494368
0.30587689
0.81556105
1.530386
1.9781793
1.8106
1.2786584
0.8244852
0.9015183
1.122071
1.1136899
0.92574789
0.66515232
0.41539757
0.2297521
0.11713458
0.056442376
0.025962817
0.01137683
0.0046937844
0.0017856332
0.00061005933
0.000194309
0.00011222338
0.00031052627
0.0022403897
0.09669592
0.10825549
0.11545963
0.12300264
0.15473942
0.30457181
0.81147721
1.5245146
1.9720802
1.8053067
1.2746858
0.82298143
0.90290861
1.1218832
1.112713
0.92453022
0.66406274
0.41459511
0.22926863
0.11687791
0.056316739
0.025904828
0.011351476
0.0046833728
0.0017816963
0.00060872754
0.00019390077
0.00011202314
0.00031002003
0.0022367392
0.096704533
0.1082598
0.1154546
0.12296818
0.15453637
0.30327477
0.80740564
1.518652
1.9659879
1.800019
1.2707219
0.82150406
0.90430209
1.1217646
1.111793
0.92335041
0.6629951
0.4138044
0.22879093
0.11662393
0.056192293
0.025847351
0.011326334
0.0046730445
0.0017777899
0.00060740563
0.00019349522
0.00011182347
0.00030951407
0.0022330906
0.096713276
0.10826429
0.11544973
0.12293397
0.15433453
0.30198588
0.80334623
1.5127983
1.9599027
1.7947363
1.2667654
0.82004619
0.90568015
1.121709
1.1109285
0.92220931
0.66195037
0.41302592
0.22831912
0.11637258
0.056068975
0.025790339
0.011301377
0.0046627863
0.0017739082
0.00060609164
0.00019309187
0.00011162452
0.00030900931
0.0022294503
0.096722158
0.10826894
0.11544502
0.12290002
0.1541339
0.30070493
0.79929923
1.5069535
1.9538245
1.7894585
1.2628149
0.81860127
0.90702616
1.1217056
1.1101171
0.92110744
0.66092968
0.41226065
0.22785388
0.1161243
0.055947021
0.025733912
0.011276662
0.0046526229
0.001770061
0.00060478878
0.00019269151
0.00011142612
0.00030850457
0.00222581
0.096731187
0.10827376
0.11544047
0.12286632
0.15393447
0.29943207
0.79526467
1.5011176
1.9477532
1.784185
1.2588687
0.81716186
0.90831913
1.1217446
1.1093561
0.92004472
0.65993347
0.41150865
0.22739497
0.11587878
0.055826212
0.02567794
0.011252119
0.0046425228
0.0017662354
0.00060349266
0.00019229299
0.00011122834
0.00030800093
0.0022221775
0.096740372
0.10827877
0.1154361
0.12283288
0.15373625
0.29816718
0.79124232
1.4952907
1.9416888
1.7789155
1.2549253
0.8157201
0.90952585
1.121815
1.1086419
0.91902107
0.65896285
0.41077118
0.22694336
0.11563666
0.055706893
0.025622596
0.011227832
0.0046325202
0.0017624446
0.00060220758
0.00019189741
0.00011103117
0.00030749757
0.0022185468
0.096749722
0.10828397
0.1154319
0.1227997
0.15353923
0.29691026
0.78723254
1.4894727
1.9356314
1.7736497
1.250983
0.81426776
0.91058348
1.1219029
1.1079702
0.91803559
0.65801805
0.41004852
0.22649914
0.1153979
0.055589023
0.025567847
0.011203777
0.0046226047
0.001758684
0.00060093194
0.00019150439
0.00011083479
0.00030699546
0.0022149247
0.096759246
0.10828935
0.11542789
0.12276679
0.15334341
0.2956613
0.78323519
1.4836636
1.9295808
1.7683872
1.2470404
0.81279827
0.91148416
1.1219964
1.1073363
0.91708709
0.65709939
0.40934135
0.22606293
0.11516294
0.055472843
0.025513818
0.011180016
0.0046128022
0.0017549636
0.00059966908
0.00019111475
0.00011063906
0.00030649348
0.0022113035
0.096768954
0.10829494
0.11542406
0.12273415
0.15314878
0.29442021
0.77925015
1.4778634
1.9235371
1.763128
1.2430961
0.81130611
0.91224431
1.1220854
1.1067351
0.91617381
0.65620637
0.40864935
0.22563438
0.11493146
0.055358143
0.025460386
0.011156485
0.0046030832
0.0017512716
0.00059841487
0.00019072741
0.00011044401
0.00030599255
0.0022076896
0.096778857
0.10830073
0.11542043
0.12270178
0.15295535
0.293187
0.77527766
1.4720723
1.9175003
1.7578718
1.2391489
0.80978699
0.91287237
1.1221608
1.1061612
0.91529397
0.65533912
0.40797334
0.2252143
0.11470403
0.055245252
0.025407721
0.011133263
0.0045934824
0.0017476211
0.00059717368
0.00019034346
0.00011024961
0.00030549178
0.0022040768
0.096788966
0.10830674
0.11541699
0.12266969
0.1527631
0.29196158
0.77131761
1.4662899
1.9114703
1.7526186
1.2351978
0.80823758
0.91337534
1.1222147
1.1056094
0.91444519
0.65449693
0.40731319
0.22480263
0.1144806
0.055134132
0.025355798
0.011110336
0.0045839914
0.0017440086
0.00059594423
0.00018996264
0.00011005614
0.00030499241
0.0022004735
0.09679929
0.10831297
0.11541377
0.12263789
0.15257204
0.29074398
0.7673699
1.4605165
1.9054472
1.7473683
1.2312423
0.80665568
0.91376353
1.1222406
1.1050741
0.91362487
0.65367911
0.40666907
0.2243998
0.11426154
0.055025013
0.025304741
0.011087764
0.0045746377
0.0017404449
0.00059473013
0.00018958584
0.00010986342
0.00030449315
0.0021968709
0.096809843
0.10831943
0.11541076
0.12260637
0.15238217
0.28953411
0.76343467
1.454752
1.899431
1.7421212
1.227282
0.80503963
0.91404237
1.1222328
1.10455
0.9128299
0.65288411
0.40604008
0.22400522
0.11404645
0.054917661
0.025254424
0.011065486
0.0045653932
0.0017369186
0.00059352755
0.00018921206
0.00010967151
0.00030399491
0.0021932753
0.096820635
0.10832612
0.11540797
0.12257514
0.15219347
0.28833193
0.75951189
1.4489963
1.8934217
1.7368776
1.2233167
0.80338891
0.91422097
1.1221868
1.104032
0.9120574
0.65211107
0.40542648
0.22361942
0.11383579
0.05481237
0.025205009
0.011043579
0.0045562922
0.0017334433
0.00059234096
0.00018884246
0.00010948042
0.00030349695
0.0021896817
0.09683168
0.10833307
0.11540542
0.12254421
0.15200595
0.28713743
0.75560138
1.4432493
1.8874194
1.7316376
1.2193466
0.80170336
0.91430457
1.1220986
1.1035149
0.91130398
0.65135824
0.40482745
0.22324204
0.11362939
0.054709052
0.025156451
0.011022024
0.004547326
0.0017300153
0.00059116919
0.0001884768
0.0001092904
0.00030300035
0.0021860971
0.09684299
0.10834026
0.1154031
0.12251358
0.15181961
0.28595052
0.75170328
1.437511
1.8814242
1.7264017
1.2153721
0.79998363
0.91430056
1.1219652
1.1029939
0.91056621
0.65062398
0.40424252
0.22287314
0.11342744
0.054607871
0.025108855
0.011000875
0.0045385196
0.001726645
0.00059001577
0.00018811596
0.00010910127
0.00030250379
0.0021825126
0.096854579
0.10834772
0.11540104
0.12248325
0.15163444
0.28477119
0.7478176
1.4317815
1.875436
1.7211702
1.2113938
0.79823053
0.91421374
1.1217841
1.1024644
0.90984037
0.64990586
0.40367017
0.22251177
0.11322938
0.054508525
0.025062064
0.010980059
0.0045298415
0.0017233201
0.00058887657
0.00018775889
0.00010891307
0.00030200821
0.0021789349
0.096866461
0.10835545
0.11539923
0.12245324
0.15145044
0.28359939
0.74394416
1.4260605
1.869455
1.7159437
1.2074125
0.79644547
0.91404982
1.1215532
1.1019223
0.90912317
0.64920232
0.4031101
0.22215819
0.11303554
0.054411252
0.025016221
0.010959648
0.0045213249
0.0017200538
0.00058775616
0.0001874068
0.00010872589
0.00030151303
0.0021753597
0.096878649
0.10836347
0.1153977
0.12242356
0.15126761
0.28243509
0.74008304
1.4203482
1.8634812
1.7107227
1.203429
0.79463
0.9138135
1.1212713
1.1013634
0.90841097
0.64851093
0.40256094
0.22181168
0.11284556
0.054315886
0.024971251
0.010939611
0.0045129568
0.0017168414
0.000586653
0.00018705936
0.00010853988
0.00030101907
0.0021717926
0.09689116
0.10837178
0.11539644
0.1223942
0.15108595
0.28127824
0.73623432
1.4146444
1.8575147
1.7055077
1.1994444
0.79278602
0.91350964
1.1209373
1.1007841
0.90770033
0.64782953
0.40202173
0.22147201
0.1126595
0.054222524
0.024927229
0.010919991
0.004504759
0.0017136922
0.00058557045
0.00018671745
0.00010835492
0.00030052521
0.0021682258
0.096904008
0.1083804
0.11539547
0.12236518
0.15090546
0.2801288
0.73239782
1.408949
1.8515555
1.7002991
1.1954597
0.79091556
0.91314272
1.120551
1.1001813
0.9069877
0.64715536
0.40149056
0.22113797
0.11247665
0.054130795
0.02488397
0.010900704
0.0044966959
0.0017105926
0.00058450402
0.00018637993
0.00010817107
0.00030003249
0.0021646669
0.096917209
0.10838933
0.11539481
0.1223365
0.15072614
0.27898677
0.7285736
1.4032622
1.8456038
1.6950975
1.1914759
0.78902071
0.91271709
1.1201124
1.0995523
0.90627011
0.64648649
0.40096669
0.22080948
0.11229717
0.054040849
0.02484158
0.010881809
0.0044887953
0.0017075543
0.00058345781
0.0001860479
0.00010798832
0.00029954
0.0021611091
0.096930781
0.10839858
0.11539445
0.12230817
0.150548
0.27785207
0.72476182
1.3975838
1.8396596
1.6899034
1.1874941
0.7871036
0.91223681
1.1196221
1.0988945
0.90554447
0.64582042
0.40044844
0.22048559
0.11212053
0.053952439
0.024799942
0.010863254
0.0044810372
0.0017045699
0.00058242954
0.00018572086
0.00010780683
0.0002990488
0.0021575599
0.09694474
0.10840818
0.11539443
0.1222802
0.15037104
0.27672473
0.72096229
1.3919139
1.8337229
1.6847172
1.1835153
0.78516633
0.91170576
1.1190807
1.0982061
0.90480807
0.645155
0.39993467
0.22016587
0.11194666
0.053865595
0.024759102
0.010845072
0.0044734388
0.0017016473
0.00058142211
0.00018539957
0.00010762648
0.00029855773
0.0021540113
0.096959103
0.10841812
0.11539473
0.12225261
0.15019526
0.27560471
0.71717511
1.3862524
1.827794
1.6795393
1.1795404
0.78321098
0.91112774
1.1184897
1.0974855
0.90405821
0.64448761
0.39942327
0.21984888
0.11177471
0.053779851
0.024718826
0.010827156
0.004465955
0.0016987693
0.0005804299
0.00018508262
0.00010744727
0.00029806786
0.0021504708
0.09697389
0.10842843
0.11539539
0.1222254
0.15002068
0.27449198
0.71340041
1.3805993
1.8218728
1.6743701
1.1755703
0.78123954
0.91050626
1.1178503
1.0967318
0.90329295
0.64381668
0.39891352
0.21953448
0.11160474
0.053695314
0.024679196
0.010809553
0.0044586091
0.0016959459
0.00057945648
0.00018477094
0.00010726911
0.00029757809
0.0021469307
0.096989117
0.10843911
0.11539641
0.12219859
0.1498473
0.27338657
0.70963811
1.3749548
1.8159595
1.6692099
1.1716057
0.77925386
0.90984459
1.1171641
1.0959441
0.90251033
0.64314018
0.39840383
0.21922165
0.11143617
0.053611682
0.024640064
0.010792196
0.0044513738
0.001693167
0.00057849861
0.00018446379
0.00010709218
0.00029708969
0.0021433997
0.097004805
0.10845017
0.11539781
0.12217219
0.14967513
0.27228844
0.7058883
1.3693187
1.810054
1.6640589
1.1676474
0.7772557
0.90914577
1.116433
1.095122
0.90170885
0.64245661
0.39789329
0.21890999
0.11126892
0.053528963
0.024601461
0.01077511
0.0044442627
0.0016904389
0.00057755871
0.00018416181
0.00010691632
0.00029660145
0.0021398695
0.097020972
0.10846164
0.11539961
0.12214621
0.14950419
0.2711976
0.70215109
1.3636912
1.8041565
1.6589176
1.1636958
0.77524661
0.90841277
1.115659
1.0942657
0.90088706
0.641764
0.39738004
0.21859815
0.1111021
0.053446666
0.024563135
0.010758175
0.004437225
0.001687742
0.00057663026
0.00018386329
0.00010674144
0.00029611435
0.0021363473
0.097037637
0.10847352
0.11540182
0.12212066
0.14933447
0.27011406
0.69842652
1.3580723
1.7982672
1.6537859
1.1597515
0.7732281
0.9076482
1.1148438
1.0933753
0.90004423
0.64106157
0.39686374
0.21828609
0.11093581
0.053364896
0.024525157
0.010741434
0.0044302807
0.0016850849
0.00057571634
0.00018356908
0.0001065675
0.00029562756
0.0021328269
0.097054822
0.10848582
0.11540445
0.12209556
0.14916601
0.26903781
0.69471463
1.352462
1.7923859
1.6486641
1.155815
0.77120146
0.90685448
1.1139896
1.0924513
0.89917959
0.64034803
0.39634315
0.21797292
0.1107695
0.053283343
0.024487372
0.010724813
0.0044233992
0.0016824559
0.00057481307
0.0001832782
0.00010639459
0.00029514208
0.0021293153
0.097072546
0.10849857
0.11540752
0.12207092
0.14899881
0.26796888
0.69101554
1.3468605
1.786513
1.6435524
1.1518866
0.76916785
0.90603377
1.1130982
1.0914943
0.89829271
0.63962261
0.39581773
0.21765839
0.11060312
0.05320202
0.024449803
0.010708329
0.0044165903
0.0016798595
0.00057392219
0.00018299109
0.00010622245
0.00029465662
0.0021258037
0.09709083
0.10851176
0.11541105
0.12204676
0.14883288
0.26690727
0.68732942
1.3412677
1.7806484
1.6384509
1.1479666
0.76712828
0.90518819
1.1121717
1.0905053
0.8973832
0.63888418
0.39528606
0.21734132
0.11043584
0.053120444
0.024412194
0.010691861
0.0044097995
0.0016772743
0.00057303647
0.00018270581
0.00010605099
0.00029417223
0.0021222996
0.097109694
0.10852543
0.11541506
0.1220231
0.14866824
0.265853
0.68365622
1.3356839
1.7747922
1.6333596
1.1440552
0.76508373
0.90431953
1.1112119
1.0894851
0.89645131
0.63813277
0.39474835
0.21702198
0.11026791
0.053038775
0.024374638
0.010675454
0.0044030489
0.0016747094
0.00057215898
0.00018242319
0.00010588017
0.00029368818
0.0021187978
0.09712916
0.10853957
0.11541956
0.12199994
0.14850492
0.26480608
0.67999615
1.330109
1.7689445
1.6282786
1.1401526
0.76303503
0.90342942
1.1102205
1.0884347
0.89549713
0.63736788
0.39420388
0.21669975
0.1100989
0.05295676
0.024336999
0.010659042
0.004396309
0.0016721529
0.00057128575
0.0001821422
0.00010571005
0.00029320538
0.0021153046
0.097149248
0.10855421
0.11542458
0.12197731
0.14834292
0.26376654
0.67634933
1.3245432
1.7631054
1.623208
1.136259
0.7609829
0.90251931
1.1091991
1.0873552
0.89452096
0.63658943
0.39365259
0.21637465
0.10992887
0.052874462
0.024299319
0.010642651
0.0043895915
0.0016696099
0.00057041851
0.00018186321
0.00010554035
0.00029272251
0.0021118108
0.09716998
0.10856935
0.11543012
0.12195522