/*--------------------------------*- C++ -*----------------------------------*\
| =========                 |                                                 |
| \\      /  F ield         | OpenFOAM: The Open Source CFD Toolbox           |
|  \\    /   O peration     | Version:  v2012                                 |
|   \\  /    A nd           | Website:  www.openfoam.com                      |
|    \\/     M anipulation  |                                                 |
\*---------------------------------------------------------------------------*/
FoamFile
{
    version     2.0;
    format      ascii;
    class       volScalarField;
    location    "400";
    object      Ma;
}
// * * * * * * * * * * * * * * * * * * * * * * * * * * * * * * * * * * * * * //

dimensions      [0 0 0 0 0 0 0];


internalField   nonuniform List<scalar> 
24000
(
0.04143436
0.041765041
0.042381279
0.043036537
0.043810035
0.043562058
0.041623354
0.039692806
0.03819884
0.036800726
0.035227013
0.033092988
0.029980815
0.02638195
0.022777301
0.019371602
0.016280976
0.013544101
0.01116162
0.0091158662
0.007376793
0.0059078418
0.0046722362
0.0036358947
0.0027684523
0.0020434275
0.0014380374
0.00093286645
0.00051147711
0.00016001847
0.041422821
0.041754721
0.042374206
0.043036988
0.043824827
0.043600915
0.041669283
0.039730023
0.038226392
0.036821022
0.035244262
0.033112602
0.030006001
0.026413021
0.022814039
0.019414091
0.016329479
0.013599125
0.011223269
0.0091832253
0.0074476716
0.0059791334
0.0047405628
0.0036982239
0.0028224726
0.0020876755
0.0014718516
0.00095625068
0.00052493791
0.00016441009
0.041412193
0.041743518
0.042360639
0.043017604
0.043795054
0.043568944
0.041639228
0.039698363
0.038194672
0.036790335
0.035215663
0.033087544
0.029985789
0.026397428
0.022801718
0.019403549
0.016318958
0.013586835
0.011207736
0.0091637614
0.0074246911
0.0059539264
0.0047148314
0.0036736592
0.0028004691
0.002069211
0.0014574859
0.00094618143
0.00051908127
0.00016248147
0.041400648
0.041731403
0.042346902
0.043001337
0.043776834
0.043559263
0.041633115
0.039688313
0.038181665
0.036775217
0.035199543
0.033072061
0.029973384
0.02638899
0.022796589
0.019401096
0.01631868
0.013588594
0.011211735
0.0091699627
0.0074327211
0.00596313
0.0047244378
0.0036829393
0.0028088364
0.0020762596
0.0014629838
0.00095004285
0.00052133168
0.0001632244
0.041388751
0.041718806
0.04233266
0.042984875
0.043759277
0.043550194
0.041626627
0.039677376
0.038166675
0.036757493
0.035180028
0.033051943
0.029954856
0.0263734
0.022783738
0.019390723
0.016310448
0.013581961
0.011206009
0.0091647523
0.0074278494
0.0059585778
0.004720271
0.0036792494
0.0028057007
0.0020737248
0.0014610637
0.00094872197
0.00052057308
0.00016297693
0.041376571
0.041705969
0.042318438
0.042969004
0.043743101
0.043542897
0.04162188
0.039668047
0.038152869
0.036740631
0.035161031
0.033031821
0.029935655
0.026356726
0.022769629
0.019379041
0.016300928
0.013574306
0.01119996
0.0091600752
0.0074243196
0.0059559781
0.0047184022
0.0036779384
0.0028048045
0.0020731311
0.0014606873
0.00094850028
0.00052046158
0.00016294495
0.04136422
0.041693015
0.042304272
0.042953457
0.043727484
0.043536128
0.041617682
0.039659057
0.03813924
0.036723733
0.035141745
0.033011059
0.029915358
0.026338627
0.022753924
0.01936572
0.016289815
0.013565144
0.011192481
0.0091540202
0.0074194514
0.005952093
0.0047153325
0.0036755474
0.0028029799
0.0020717803
0.0014597336
0.00094787935
0.0005201198
0.00016283752
0.04135176
0.041680013
0.042290181
0.042938142
0.043712168
0.043529652
0.041613865
0.039650332
0.038125782
0.036706905
0.035122399
0.032990042
0.029894552
0.026319846
0.022737456
0.019351621
0.01627796
0.013555312
0.01118443
0.009147506
0.007414236
0.0059479614
0.004712099
0.0036730553
0.0028010985
0.0020704016
0.0014587688
0.00094725607
0.00051977888
0.00016273096
0.041339239
0.041666993
0.04227615
0.042922949
0.043697013
0.043523293
0.041610218
0.039641753
0.038112388
0.036690087
0.035102972
0.032968825
0.029873392
0.026300606
0.022720476
0.019336997
0.016265597
0.01354501
0.011175955
0.0091406152
0.0074086925
0.0059435487
0.0047086291
0.003670369
0.0027990621
0.0020689037
0.0014577174
0.00094657494
0.00051940547
0.000162614
0.041326683
0.04165397
0.042262165
0.042907835
0.043681952
0.043516978
0.041606707
0.039633258
0.038099043
0.036673261
0.035083491
0.032947483
0.029852017
0.026281087
0.022703185
0.019322054
0.016252926
0.013534422
0.011167226
0.0091335088
0.0074029701
0.0059389911
0.0047050448
0.0036675944
0.0027969592
0.0020673574
0.0014566322
0.00094587211
0.00051902021
0.00016249334
0.041314108
0.04164095
0.042248209
0.042892777
0.043666904
0.043510666
0.041603252
0.03962482
0.038085721
0.036656422
0.035063968
0.032926053
0.029830498
0.026261388
0.022685695
0.019306906
0.016240056
0.013523652
0.011158335
0.0091262609
0.007397128
0.0059343346
0.0047013802
0.0036647561
0.0027948069
0.0020657742
0.0014555208
0.00094515205
0.00051862541
0.00016236964
0.041301523
0.041627934
0.042234274
0.042877748
0.043651877
0.043504329
0.04159984
0.039616422
0.038072406
0.036639574
0.035044413
0.03290456
0.029808883
0.026241573
0.022668076
0.019291625
0.016227058
0.013512762
0.011149336
0.0091189208
0.0073912086
0.0059296149
0.0046976653
0.0036618785
0.0027926251
0.0020641694
0.0014543942
0.00094442217
0.0005182252
0.00016224424
0.041288934
0.041614922
0.042220351
0.042862729
0.043636859
0.043497961
0.041596477
0.039608055
0.038059109
0.036622723
0.035024834
0.032883021
0.029787205
0.026221683
0.022650375
0.019276261
0.016213979
0.013501797
0.011140272
0.0091115234
0.0073852408
0.0059248552
0.0046939178
0.0036589752
0.0027904232
0.0020625495
0.0014532569
0.00094368527
0.00051782109
0.0001621176
0.041276341
0.041601912
0.042206435
0.042847724
0.043621816
0.043491551
0.041593122
0.039599721
0.038045831
0.036605869
0.035005235
0.032861448
0.029765482
0.026201744
0.022632621
0.019260841
0.016200844
0.01349078
0.01113116
0.0091040853
0.007379239
0.0059200678
0.0046901485
0.003656055
0.0027882087
0.0020609205
0.0014521133
0.0009429443
0.00051741476
0.00016199026
0.041263746
0.041588903
0.042192525
0.042832728
0.043606763
0.043485098
0.041589807
0.039591414
0.038032554
0.036589017
0.034985623
0.032839849
0.029743727
0.026181773
0.022614832
0.019245384
0.016187674
0.013479729
0.011122018
0.0090966212
0.0073732152
0.0059152622
0.0046863645
0.0036531231
0.0027859851
0.0020592847
0.0014509648
0.00094220014
0.00051700666
0.00016186236
0.041251149
0.041575894
0.04217861
0.042817742
0.0435917
0.043478599
0.041586506
0.03958314
0.038019292
0.036572161
0.034966002
0.032818229
0.029721952
0.026161781
0.022597021
0.019229905
0.01617448
0.013468656
0.011112855
0.0090891378
0.0073671751
0.0059104434
0.0046825701
0.0036501833
0.0027837558
0.0020576449
0.0014498136
0.00094145427
0.00051659763
0.00016173417
0.04123855
0.041562885
0.042164695
0.042802741
0.043576614
0.04347205
0.041583213
0.03957489
0.038006058
0.036555303
0.034946373
0.032796595
0.029700162
0.02614178
0.022579202
0.019214416
0.016161276
0.013457573
0.011103683
0.0090816466
0.0073611278
0.0059056182
0.0046787701
0.0036472389
0.0027815226
0.0020560019
0.0014486601
0.00094070682
0.0005161877
0.00016160568
0.041225949
0.041549874
0.042150769
0.042787736
0.043561509
0.043465457
0.041579963
0.039566679
0.037992825
0.036538447
0.034926735
0.032774946
0.029678364
0.026121774
0.022561378
0.01919892
0.016148064
0.013446481
0.011094502
0.0090741473
0.0073550738
0.0059007876
0.004674966
0.0036442914
0.0027792873
0.0020543576
0.0014475056
0.00093995885
0.00051577751
0.00016147712
0.041213346
0.041536861
0.042136842
0.042772736
0.043546386
0.043458812
0.041576713
0.039558491
0.037979611
0.036521597
0.034907091
0.032753287
0.02965656
0.026101768
0.022543554
0.019183424
0.01613485
0.013435386
0.011085318
0.0090666452
0.007349017
0.0058959544
0.0046711596
0.0036413417
0.0027770501
0.0020527117
0.0014463501
0.00093921006
0.00051536685
0.0001613484
0.04120074
0.041523846
0.042122913
0.042757731
0.04353125
0.043452121
0.041573487
0.039550346
0.037966426
0.036504752
0.034887443
0.032731618
0.029634754
0.026081767
0.022525736
0.019167931
0.016121638
0.013424291
0.011076133
0.0090591411
0.0073429582
0.0058911195
0.0046673521
0.0036383915
0.0027748127
0.0020510659
0.0014451946
0.00093846144
0.00051495629
0.00016121973
0.041188131
0.041510828
0.042108983
0.04274272
0.043516088
0.043445382
0.041570284
0.039542224
0.037953248
0.036487918
0.03486779
0.032709941
0.029612949
0.026061774
0.022507928
0.019152447
0.016108432
0.013413202
0.011066953
0.0090516406
0.0073369017
0.005886286
0.0046635451
0.0036354411
0.0027725749
0.0020494195
0.0014440386
0.00093771238
0.00051454547
0.00016109095
0.041175518
0.041497805
0.042095052
0.042727711
0.043500902
0.04343859
0.04156708
0.039534148
0.037940088
0.036471085
0.034848132
0.032688256
0.029591145
0.026041791
0.02249013
0.019136971
0.016095232
0.013402117
0.011057774
0.009044141
0.007330846
0.0058814531
0.0046597389
0.0036324916
0.0027703379
0.0020477739
0.0014428833
0.00093696378
0.00051413493
0.00016096228
0.041162903
0.041484779
0.042081118
0.042712705
0.043485716
0.043431754
0.04156392
0.039526097
0.037926957
0.036454255
0.034828471
0.032666564
0.029569345
0.02602182
0.022472345
0.019121507
0.016082042
0.013391039
0.011048602
0.0090366458
0.0073247934
0.0058766224
0.0046559339
0.0036295428
0.0027681012
0.0020461283
0.0014417279
0.0009362151
0.00051372432
0.00016083358
0.041150283
0.041471749
0.042067182
0.042697703
0.043470493
0.043424865
0.041560763
0.03951809
0.037913838
0.036437431
0.034808804
0.032644864
0.029547549
0.026001862
0.022454575
0.019106054
0.01606886
0.013379966
0.011039432
0.0090291523
0.0073187416
0.0058717923
0.0046521296
0.0036265947
0.0027658653
0.0020444835
0.0014405731
0.00093546688
0.00051331398
0.00016070497
0.041137661
0.041458717
0.042053244
0.042682689
0.04345525
0.043417927
0.041557615
0.039510112
0.037900738
0.036420616
0.034789137
0.032623157
0.029525762
0.025981922
0.022436823
0.019090618
0.016055692
0.013368906
0.011030273
0.009021667
0.0073126962
0.0058669665
0.0046483281
0.0036236483
0.0027636303
0.002042839
0.0014394184
0.00093471865
0.00051290361
0.00016057634
0.041125035
0.041445681
0.042039304
0.042667665
0.043440008
0.043410944
0.041554504
0.039502177
0.037887664
0.036403809
0.034769465
0.032601442
0.029503985
0.025961999
0.022419089
0.019075196
0.016042535
0.013357853
0.011021119
0.0090141854
0.0073066535
0.005862143
0.0046445286
0.0036207036
0.0027613967
0.0020411957
0.0014382646
0.00093397104
0.0005124936
0.00016044784
0.041112405
0.041432643
0.042025362
0.042652645
0.043424731
0.043403904
0.041551391
0.039494275
0.037874608
0.036387013
0.034749788
0.032579717
0.029482215
0.025942095
0.022401373
0.01905979
0.016029391
0.01334681
0.011011973
0.00900671
0.0073006153
0.0058573227
0.004640731
0.00361776
0.0027591637
0.0020395527
0.0014371109
0.00093322338
0.00051208354
0.00016031931
0.041099771
0.0414196
0.042011418
0.04263762
0.043409434
0.043396821
0.041548301
0.039486414
0.03786157
0.036370222
0.034730106
0.032557983
0.029460454
0.025922212
0.022383679
0.019044401
0.016016259
0.013335777
0.011002834
0.0089992392
0.0072945806
0.0058525051
0.004636936
0.0036148187
0.0027569327
0.0020379113
0.0014359585
0.00093247669
0.00051167403
0.00016019097
0.041087134
0.041406555
0.041997472
0.042622588
0.04339413
0.043389683
0.041545231
0.03947859
0.037848558
0.036353435
0.034710419
0.032536238
0.029438702
0.025902353
0.022366008
0.019029032
0.016003145
0.013324758
0.010993706
0.008991778
0.0072885532
0.0058476926
0.0046331442
0.0036118793
0.0027547027
0.0020362703
0.0014348061
0.00093172992
0.00051126445
0.00016006259
0.041074492
0.041393506
0.041983523
0.042607559
0.043378808
0.043382496
0.041542159
0.039470805
0.037835567
0.036336656
0.034690725
0.032514481
0.029416962
0.025882518
0.022348359
0.019013681
0.015990043
0.013313749
0.010984586
0.0089843214
0.0072825292
0.0058428828
0.0046293547
0.0036089419
0.0027524744
0.0020346307
0.0014336548
0.00093098388
0.00051085529
0.00015993436
0.041061847
0.041380453
0.041969572
0.042592531
0.043363458
0.043375262
0.041539123
0.039463059
0.037822593
0.036319887
0.034671026
0.032492709
0.029395232
0.02586271
0.022330736
0.018998349
0.015976958
0.013302752
0.010975475
0.0089768725
0.0072765112
0.0058380776
0.0046255685
0.0036060067
0.0027502475
0.002032992
0.0014325041
0.0009302381
0.00051044625
0.00015980615
0.041049196
0.041367396
0.041955619
0.042577507
0.043348093
0.04336797
0.04153609
0.039455352
0.037809643
0.036303128
0.034651319
0.032470919
0.029373514
0.025842931
0.022313137
0.018983036
0.015963886
0.013291764
0.01096637
0.0089694281
0.0072704963
0.0058332747
0.0046217844
0.0036030734
0.0027480224
0.0020313548
0.0014313545
0.0009294932
0.00051003772
0.00015967811
0.041036542
0.041354335
0.041941658
0.042562478
0.043332727
0.043360635
0.041533059
0.039447686
0.03779672
0.036286383
0.034631606
0.03244911
0.029351811
0.025823186
0.022295568
0.018967747
0.015950833
0.013280793
0.01095728
0.0089619945
0.0072644897
0.0058284779
0.0046180042
0.0036001426
0.0027457987
0.0020297182
0.0014302052
0.00092874834
0.00050962917
0.00015955005
0.041023883
0.041341271
0.041927694
0.042547433
0.043317326
0.043353242
0.041530067
0.039440062
0.037783812
0.036269645
0.034611887
0.032427277
0.029330121
0.025803478
0.022278027
0.018952477
0.015937794
0.013269832
0.010948196
0.008954566
0.0072584871
0.0058236841
0.0046142267
0.003597214
0.0027435768
0.0020280832
0.0014290571
0.00092800429
0.00050922111
0.00015942216
0.041011221
0.041328202
0.04191372
0.042532392
0.043301903
0.043345801
0.04152707
0.039432479
0.037770929
0.036252913
0.034592163
0.032405417
0.029308444
0.02578381
0.022260516
0.01893723
0.015924773
0.013258884
0.010939123
0.0089471459
0.0072524905
0.0058188949
0.0046104524
0.0035942876
0.0027413562
0.0020264489
0.0014279093
0.00092726044
0.00050881313
0.00015929428
0.040998556
0.041315127
0.041899742
0.042517349
0.043286487
0.043338312
0.041524083
0.03942494
0.037758074
0.036236196
0.034572438
0.032383525
0.029286781
0.025764189
0.022243034
0.018922003
0.015911766
0.013247947
0.010930057
0.0089397311
0.0072464978
0.0058141087
0.0046066807
0.0035913635
0.0027391378
0.0020248165
0.001426763
0.00092651761
0.00050840574
0.00015916659
0.040985887
0.041302048
0.041885762
0.042502298
0.04327104
0.043330765
0.041521123
0.039417442
0.037745235
0.036219491
0.034552709
0.0323616
0.029265129
0.025744622
0.022225585
0.0189068
0.015898779
0.013237026
0.010921005
0.0089323274
0.0072405138
0.0058093287
0.0046029131
0.0035884419
0.0027369208
0.0020231846
0.001425617
0.0009257748
0.0005079983
0.00015903887
0.040973215
0.041288966
0.04187178
0.04248725
0.043255567
0.043323176
0.041518156
0.03940999
0.037732419
0.036202803
0.034532979
0.03233964
0.029243489
0.025725111
0.022208165
0.018891616
0.015885805
0.013226115
0.01091196
0.0089249288
0.0072345336
0.005804552
0.0045991485
0.003585523
0.002734706
0.0020215547
0.0014244724
0.00092503305
0.00050759149
0.00015891137
0.040960539
0.041275882
0.041857797
0.042472204
0.043240093
0.043315525
0.041515208
0.039402578
0.037719633
0.03618613
0.034513248
0.032317642
0.029221857
0.025705662
0.022190774
0.018876453
0.015872848
0.013215217
0.010902925
0.0089175387
0.0072285601
0.0057997803
0.0045953874
0.0035826064
0.0027324927
0.0020199256
0.0014233282
0.00092429147
0.00050718474
0.00015878388
0.04094786
0.041262794
0.041843812
0.042457161
0.043224608
0.043307829
0.041512276
0.039395219
0.037706864
0.036169468
0.034493517
0.032295609
0.029200232
0.025686274
0.02217341
0.018861308
0.015859904
0.013204328
0.010893898
0.008910153
0.0072225896
0.005795011
0.0045916285
0.0035796919
0.0027302813
0.0020182982
0.0014221854
0.00092355092
0.00050677859
0.00015865658
0.040935178
0.041249703
0.041829825
0.042442124
0.043209089
0.043300082
0.041509335
0.039387894
0.037694117
0.036152815
0.034473788
0.032273544
0.029178613
0.025666948
0.022156073
0.018846183
0.015846976
0.013193455
0.010884883
0.008902778
0.0072166275
0.0057902478
0.0045878736
0.0035767798
0.0027280712
0.0020166714
0.0014210427
0.00092281031
0.00050637235
0.00015852924
0.040922492
0.041236608
0.041815837
0.042427065
0.04319356
0.043292277
0.04150642
0.039380631
0.0376814
0.036136184
0.034454061
0.032251453
0.029156998
0.025647681
0.02213876
0.018831074
0.01583406
0.013182589
0.010875873
0.0088954071
0.0072106686
0.0057854873
0.0045841211
0.0035738698
0.002725863
0.0020150462
0.0014199013
0.00092207061
0.00050596666
0.00015840208
0.040909803
0.041223511
0.041801848
0.042412008
0.043178038
0.04328443
0.041503518
0.039373391
0.037668699
0.036119563
0.034434337
0.032229341
0.029135386
0.025628466
0.022121469
0.018815981
0.015821156
0.013171734
0.010866873
0.0088880438
0.0072047157
0.0057807314
0.0045803716
0.0035709618
0.0027236559
0.0020134215
0.0014187602
0.00092133097
0.00050556096
0.00015827492
0.04089711
0.04121041
0.041787857
0.042396953
0.043162478
0.043276518
0.041500618
0.039366203
0.03765602
0.036102965
0.034414616
0.032207214
0.029113772
0.025609296
0.022104198
0.018800902
0.015808263
0.013160887
0.010857878
0.008880684
0.0071987652
0.0057759775
0.0045766241
0.003568056
0.0027214508
0.0020117986
0.0014176205
0.00092059235
0.00050515587
0.00015814795
0.040884414
0.041197307
0.041773865
0.042381888
0.043146893
0.043268562
0.04149776
0.039359032
0.03764337
0.036086381
0.034394903
0.032185082
0.029092159
0.025590165
0.022086949
0.01878584
0.015795385
0.013150054
0.010848896
0.0088733351
0.0071928235
0.0057712302
0.0045728811
0.0035651528
0.0027192472
0.0020101763
0.001416481
0.00091985376
0.00050475073
0.00015802096
0.040871715
0.0411842
0.041759872
0.042366825
0.043131316
0.043260554
0.041494911
0.039351913
0.037630737
0.036069809
0.034375198
0.032162948
0.029070544
0.025571061
0.022069718
0.01877079
0.015782516
0.013139227
0.010839918
0.0088659896
0.0071868843
0.005766485
0.0045691402
0.0035622517
0.0027170453
0.0020085557
0.0014153427
0.00091911604
0.00050434612
0.00015789415
0.040859012
0.04117109
0.041745876
0.042351765
0.043115724
0.043252488
0.041492071
0.039344811
0.037618128
0.036053252
0.0343555
0.032140818
0.029048924
0.025551976
0.022052506
0.018755755
0.015769659
0.013128411
0.01083095
0.0088586515
0.007180951
0.0057617444
0.0045654024
0.0035593526
0.0027148447
0.0020069356
0.0014142048
0.00091837844
0.00050394153
0.00015776734
0.040846306
0.041157976
0.041731879
0.042336708
0.043100097
0.04324438
0.041489269
0.039337761
0.037605545
0.036036714
0.034335811
0.032118697
0.0290273
0.025532901
0.02203531
0.018740733
0.015756811
0.013117601
0.010821986
0.0088513169
0.0071750205
0.0057570061
0.004561667
0.0035564559
0.0027126464
0.0020053176
0.0014130684
0.00091764203
0.00050353764
0.00015764076
0.040833596
0.041144859
0.041717881
0.042321656
0.043084466
0.043236204
0.041486473
0.039330729
0.037592982
0.036020193
0.034316133
0.032096587
0.02900567
0.02551383
0.022018132
0.018725727
0.015743978
0.013106805
0.010813034
0.0088439926
0.0071690981
0.0057522738
0.0045579356
0.0035535615
0.0027104492
0.0020037
0.0014119321
0.00091690546
0.0005031336
0.00015751411
0.040820883
0.041131738
0.041703877
0.042306595
0.043068844
0.043227983
0.041483689
0.039323746
0.037580443
0.036003696
0.034296468
0.032074492
0.028984035
0.025494754
0.02200097
0.018710734
0.015731154
0.013096015
0.010804086
0.0088366709
0.0071631779
0.0057475436
0.0045542064
0.0035506692
0.0027082539
0.0020020841
0.0014107971
0.00091616982
0.00050273012
0.00015738766
0.040808166
0.041118614
0.041689869
0.042291524
0.043053177
0.043219708
0.04148094
0.039316785
0.037567928
0.035987214
0.034276816
0.032052412
0.028962394
0.025475669
0.021983823
0.018695756
0.015718342
0.013085235
0.010795146
0.0088293567
0.0071572636
0.0057428179
0.0045504804
0.003547779
0.00270606
0.0020004689
0.0014096625
0.00091543438
0.00050232671
0.00015726122
0.040795445
0.041105487
0.04167586
0.042276458
0.043037493
0.043211377
0.041478198
0.039309872
0.037555436
0.035970746
0.034257178
0.032030349
0.02894075
0.025456568
0.02196669
0.018680792
0.015705542
0.013074462
0.010786211
0.0088220452
0.0071513512
0.0057380938
0.004546756
0.0035448906
0.0027038678
0.0019988554
0.0014085292
0.00091469988
0.00050192386
0.00015713496
0.040782719
0.041092356
0.04166184
0.042261383
0.043021819
0.043203001
0.041475469
0.039302981
0.037542971
0.035954304
0.034237556
0.032008303
0.028919101
0.02543745
0.021949572
0.018665845
0.015692757
0.013063703
0.010777289
0.008814744
0.007145447
0.0057333758
0.0045430357
0.0035420046
0.0027016769
0.0019972424
0.0014073961
0.00091396533
0.00050152092
0.00015700866
0.040769989
0.041079221
0.041647818
0.042246307
0.04300613
0.043194558
0.041472773
0.039296137
0.037530526
0.035937879
0.034217952
0.031986275
0.028897445
0.025418311
0.021932465
0.018650912
0.015679983
0.013052952
0.010768372
0.0088074463
0.0071395455
0.0057286601
0.0045393176
0.0035391208
0.0026994879
0.0019956311
0.0014062642
0.00091323173
0.00050111855
0.00015688256
0.040757255
0.041066083
0.041633795
0.042231235
0.042990404
0.043186071
0.041470083
0.039289321
0.037518108
0.035921483
0.034198367
0.031964264
0.028875782
0.025399148
0.021915368
0.018635994
0.015667222
0.013042213
0.010759463
0.0088001562
0.00713365
0.005723949
0.0045356028
0.0035362391
0.0026973003
0.0019940205
0.0014051328
0.0009124983
0.00050071623
0.00015675646
0.040744517
0.041052942
0.04161977
0.042216165
0.042974677
0.043177525
0.041467407
0.039282541
0.037505717
0.035905105
0.034178806
0.031942273
0.028854111
0.025379959
0.021898278
0.018621089
0.015654473
0.013031481
0.010750561
0.0087928693
0.0071277567
0.0057192396
0.0045318898
0.0035333593
0.0026951146
0.0019924116
0.0014040028
0.00091176588
0.0005003145
0.00015663055
0.040731777
0.041039794
0.041605745
0.042201099
0.04295896
0.043168926
0.041464763
0.039275803
0.037493346
0.035888746
0.034159268
0.031920304
0.028832435
0.025360746
0.021881197
0.018606201
0.015641741
0.013020766
0.010741671
0.0087855935
0.0071218721
0.0057145368
0.0045281812
0.0035304823
0.0026929305
0.0019908035
0.0014028731
0.00091103351
0.00049991276
0.00015650462
0.040719033
0.041026644
0.041591718
0.042186038
0.042943201
0.04316028
0.041462124
0.039269088
0.037481
0.03587241
0.034139752
0.031898357
0.028810753
0.025341504
0.021864121
0.018591325
0.01562902
0.013010058
0.010732787
0.0087783214
0.0071159901
0.0057098361
0.0045244747
0.0035276072
0.0026907481
0.0019891969
0.0014017446
0.00091030203
0.00049951153
0.00015637887
0.040706285
0.04101349
0.04157769
0.04217096
0.042927423
0.043151566
0.041459502
0.039262426
0.037468686
0.035856096
0.034120259
0.031876432
0.028789067
0.025322235
0.021847047
0.018576462
0.015616313
0.012999363
0.010723913
0.008771057
0.007110114
0.0057051397
0.004520771
0.0035247339
0.0026885668
0.0019875908
0.0014006162
0.00090957059
0.00049911027
0.0001562531
0.040693535
0.041000332
0.041563661
0.042155882
0.042911656
0.043142811
0.041456909
0.039255781
0.037456391
0.035839806
0.034100789
0.031854531
0.028767379
0.02530294
0.021829976
0.018561611
0.015603619
0.012988678
0.010715046
0.0087637972
0.0071042413
0.005700446
0.0045170699
0.003521863
0.0026863878
0.0019859867
0.0013994896
0.00090884035
0.00049870971
0.00015612756
0.04068078
0.040987171
0.041549631
0.042140804
0.042895883
0.043133993
0.04145432
0.039249192
0.037444117
0.035823542
0.034081342
0.031832654
0.028745691
0.025283621
0.021812907
0.018546774
0.015590941
0.012978008
0.010706192
0.0087565485
0.007098377
0.0056957586
0.0045133729
0.0035189947
0.0026842102
0.0019843833
0.0013983631
0.0009081101
0.0004983091
0.00015600199
0.040668023
0.040974006
0.041535599
0.042125718
0.042880066
0.043125122
0.041451749
0.039242617
0.037431879
0.035807293
0.034061919
0.031810803
0.028724004
0.025264278
0.021795837
0.018531947
0.015578275
0.012967347
0.010697344
0.0087493037
0.0070925155
0.0056910734
0.0045096779
0.0035161282
0.0026820342
0.0019827812
0.0013972378
0.00090738067
0.00049790898
0.00015587658
0.040655261
0.040960837
0.041521566
0.042110635
0.042864248
0.043116202
0.041449203
0.039236098
0.03741966
0.035791065
0.034042519
0.031788977
0.02870232
0.025244912
0.021778766
0.018517129
0.015565621
0.012956699
0.010688507
0.0087420674
0.0070866604
0.005686393
0.0045059862
0.0035132639
0.0026798596
0.0019811799
0.0013961128
0.00090665139
0.0004975089
0.00015575119
0.040642497
0.040947665
0.041507532
0.042095555
0.042848441
0.043107217
0.041446665
0.039229595
0.037407463
0.03577486
0.034023146
0.031767178
0.02868064
0.025225526
0.021761691
0.01850232
0.015552978
0.01294606
0.010679677
0.008734835
0.007080808
0.0056817147
0.0045022964
0.0035104016
0.0026776869
0.0019795804
0.0013949893
0.00090592318
0.00049710945
0.00015562599
0.040629728
0.040934489
0.041493496
0.042080477
0.042832605
0.043098188
0.041444141
0.039223144
0.037395294
0.035758673
0.034003797
0.03174541
0.028658968
0.025206122
0.021744614
0.01848752
0.01554035
0.012935435
0.010670859
0.0087276138
0.0070749642
0.0056770425
0.0044986107
0.0035075416
0.0026755154
0.0019779813
0.0013938658
0.00090519486
0.00049670989
0.00015550075
0.040616956
0.040921308
0.041479458
0.042065403
0.042816737
0.043089092
0.041441641
0.03921672
0.03738315
0.035742514
0.033984472
0.031723671
0.028637304
0.0251867
0.021727532
0.018472726
0.01552773
0.012924819
0.010662048
0.0087203966
0.0070691231
0.0056723725
0.0044949268
0.0035046833
0.0026733454
0.0019763836
0.0013927434
0.00090446727
0.00049631076
0.00015537566
0.04060418
0.040908123
0.041465418
0.042050331
0.042800879
0.043079948
0.041439149
0.03921033
0.03737103
0.03572637
0.033965172
0.031701962
0.028615652
0.025167264
0.021710445
0.018457938
0.01551512
0.012914213
0.010653247
0.0087131877
0.0070632886
0.0056677074
0.0044912465
0.0035018274
0.0026711769
0.0019747867
0.0013916214
0.00090373993
0.00049591174
0.00015525059
0.0405914
0.040894934
0.041451371
0.04203524
0.042785029
0.043070748
0.041436671
0.039203985
0.037358932
0.035710242
0.033945895
0.031680284
0.028594012
0.025147813
0.021693352
0.018443154
0.015502519
0.012903615
0.010644451
0.0087059822
0.0070574562
0.0056630438
0.0044875674
0.0034989729
0.0026690098
0.0019731912
0.0013905006
0.00090301345
0.00049551322
0.00015512568
0.040578616
0.04088174
0.041437321
0.042020154
0.042769127
0.043061486
0.041434214
0.039197657
0.037346858
0.035694138
0.033926644
0.031658639
0.028572388
0.025128354
0.021676257
0.018428377
0.01548993
0.012893032
0.010635669
0.0086987884
0.007051633
0.0056583868
0.0044838929
0.0034961213
0.0026668442
0.0019715962
0.00138938
0.00090228692
0.00049511464
0.00015500074
0.040565828
0.040868542
0.04142327
0.04200506
0.04275322
0.043052179
0.041431767
0.039191391
0.037334815
0.03567805
0.033907417
0.031637028
0.028550782
0.025108886
0.021659156
0.018413603
0.015477348
0.012882456
0.010626893
0.0086915986
0.0070458127
0.0056537323
0.0044802205
0.0034932715
0.0026646804
0.0019700029
0.0013882606
0.00090156128
0.00049471659
0.00015487597
0.040553037
0.040855336
0.041409208
0.041989965
0.042737325
0.043042804
0.041429332
0.039185134
0.037322792
0.03566199
0.033888215
0.03161545
0.028529194
0.025089411
0.02164205
0.018398832
0.015464775
0.012871889
0.010618127
0.008684417
0.0070399988
0.0056490823
0.0044765512
0.0034904237
0.0026625176
0.00196841
0.0013871414
0.00090083564
0.00049431849
0.00015475119
0.040540242
0.040842125
0.041395145
0.041974873
0.042721422
0.043033383
0.041426916
0.039178936
0.037310787
0.035645943
0.03386904
0.031593906
0.028507626
0.025069931
0.02162494
0.018384064
0.015452207
0.01286133
0.010609366
0.0086772392
0.0070341874
0.0056444343
0.0044728836
0.0034875776
0.0026603565
0.0019668186
0.0013860234
0.00090011093
0.00049392095
0.00015462658
0.040527443
0.040828909
0.041381081
0.041959784
0.042705471
0.043023901
0.041424512
0.039172756
0.037298818
0.035629913
0.033849893
0.031572397
0.028486081
0.02505045
0.021607828
0.018369301
0.015439651
0.012850784
0.010600619
0.0086700734
0.0070283858
0.0056397935
0.0044692209
0.0034847346
0.002658197
0.0019652281
0.0013849057
0.00089938622
0.00049352335
0.00015450194
0.040514641
0.04081569
0.041367015
0.041944698
0.042689527
0.043014362
0.041422116
0.039166622
0.037286868
0.035613906
0.03383077
0.031550923
0.028464558
0.025030968
0.021590711
0.018354538
0.015427098
0.012840242
0.010591875
0.0086629107
0.007022587
0.0056351548
0.0044655602
0.0034818934
0.0026560393
0.0019636392
0.0013837892
0.00089866243
0.00049312629
0.00015437748
0.040501834
0.040802466
0.041352948
0.041929615
0.042673595
0.043004771
0.041419738
0.039160523
0.037274939
0.035597913
0.033811671
0.031529482
0.028443059
0.025011486
0.021573592
0.018339778
0.015414552
0.012829709
0.010583141
0.0086557557
0.0070167942
0.0056305205
0.0044619024
0.0034790538
0.0026538824
0.0019620504
0.0013826727
0.00089793848
0.0004927291
0.00015425297
0.040489024
0.040789237
0.041338879
0.041914533
0.042657634
0.042995116
0.041417374
0.039154447
0.037263037
0.035581948
0.033792597
0.031508075
0.028421584
0.024992007
0.02155647
0.018325018
0.01540201
0.012819181
0.010574411
0.0086486044
0.0070110041
0.0056258884
0.0044582465
0.0034762162
0.0026517273
0.0019604634
0.0013815576
0.00089721556
0.00049233252
0.00015412866
0.04047621
0.040776004
0.041324809
0.041899435
0.042641644
0.042985415
0.041415014
0.039148431
0.037251158
0.035565996
0.033773547
0.031486703
0.028400135
0.024972533
0.021539349
0.018310264
0.015389477
0.012808666
0.010565694
0.0086414647
0.0070052237
0.0056212636
0.0044545958
0.0034733818
0.0026495741
0.0019588773
0.0013804427
0.00089649268
0.0004919359
0.00015400432
0.040463391
0.040762767
0.041310739
0.041884342
0.042625665
0.042975648
0.041412673
0.039142424
0.037239306
0.035550062
0.033754521
0.031465363
0.028378711
0.024953064
0.021522226
0.018295509
0.015376947
0.012798154
0.01055698
0.0086343279
0.0069994458
0.0056166409
0.0044509471
0.0034705493
0.0026474225
0.0019572926
0.0013793291
0.00089577066
0.0004915398
0.00015388016
0.040450568
0.040749525
0.041296668
0.041869239
0.042609699
0.04296583
0.041410346
0.03913648
0.037227476
0.035534149
0.033735522
0.031444056
0.028357312
0.024933601
0.021505103
0.018280757
0.015364422
0.012787649
0.010548274
0.0086271989