/*--------------------------------*- C++ -*----------------------------------*\
| =========                 |                                                 |
| \\      /  F ield         | OpenFOAM: The Open Source CFD Toolbox           |
|  \\    /   O peration     | Version:  v2012                                 |
|   \\  /    A nd           | Website:  www.openfoam.com                      |
|    \\/     M anipulation  |                                                 |
\*---------------------------------------------------------------------------*/
FoamFile
{
    version     2.0;
    format      ascii;
    class       volScalarField;
    location    "400";
    object      nut;
}
// * * * * * * * * * * * * * * * * * * * * * * * * * * * * * * * * * * * * * //

dimensions      [0 2 -1 0 0 0 0];


internalField   nonuniform List<scalar> 
24000
(
3.8849442e-05
1.06795e-05
8.9276896e-06
6.9566584e-06
3.8711195e-06
4.7230792e-06
6.6712959e-06
7.3503801e-06
7.1658768e-06
6.5350331e-06
6.548284e-06
3.2826891e-06
1.6825524e-06
1.1218574e-06
7.1131856e-07
4.5461372e-07
2.776845e-07
1.4776095e-07
6.2107944e-08
2.2568422e-08
7.2879344e-09
2.1343924e-09
5.7000865e-10
1.3719308e-10
2.888673e-11
5.0792708e-12
7.4281829e-13
1.6112545e-13
1.2561118e-13
1.3423815e-13
3.8836312e-05
1.0546945e-05
8.7312194e-06
6.6245217e-06
3.8224082e-06
4.6760023e-06
6.6391254e-06
7.3476134e-06
7.1737143e-06
6.5502811e-06
6.5525407e-06
3.2926657e-06
1.6851898e-06
1.1216173e-06
7.1232023e-07
4.5590791e-07
2.7881621e-07
1.4840025e-07
6.2400806e-08
2.2677064e-08
7.323155e-09
2.1448473e-09
5.7286901e-10
1.3790279e-10
2.9043595e-11
5.111705e-12
7.5235077e-13
1.6792869e-13
1.3285895e-13
1.4195089e-13
3.8823179e-05
1.0610388e-05
8.8876141e-06
6.8576165e-06
3.8891836e-06
4.687666e-06
6.610373e-06
7.3157961e-06
7.1438484e-06
6.5193585e-06
6.5489467e-06
3.2942564e-06
1.6857924e-06
1.1215138e-06
7.1242232e-07
4.5607689e-07
2.7896536e-07
1.4883675e-07
6.2654497e-08
2.2788527e-08
7.3627962e-09
2.1569319e-09
5.7613913e-10
1.3869192e-10
2.9208213e-11
5.1382878e-12
7.5347245e-13
1.6536377e-13
1.2969265e-13
1.3857718e-13
3.8809805e-05
1.0646812e-05
8.9502009e-06
6.9264643e-06
3.9087219e-06
4.6732259e-06
6.587062e-06
7.2956738e-06
7.1255376e-06
6.5005602e-06
6.5399927e-06
3.2912863e-06
1.6851616e-06
1.1211483e-06
7.1208038e-07
4.558341e-07
2.7875526e-07
1.4856783e-07
6.2496681e-08
2.2717672e-08
7.3370432e-09
2.1489374e-09
5.7394805e-10
1.3815922e-10
2.909637e-11
5.1196496e-12
7.5195918e-13
1.6626602e-13
1.3091033e-13
1.3987777e-13
3.879616e-05
1.0688959e-05
9.0051039e-06
6.9751446e-06
3.919652e-06
4.6602601e-06
6.5691613e-06
7.2785018e-06
7.1093456e-06
6.4847845e-06
6.5289348e-06
3.2865313e-06
1.6841532e-06
1.1201064e-06
7.1144441e-07
4.5548682e-07
2.7856293e-07
1.4849391e-07
6.2473394e-08
2.2711273e-08
7.3353565e-09
2.1484936e-09
5.7383552e-10
1.3813307e-10
2.9090928e-11
5.11851e-12
7.5153481e-13
1.6590575e-13
1.305168e-13
1.3945738e-13
3.8782222e-05
1.0722278e-05
9.040692e-06
7.0033166e-06
3.9273829e-06
4.6465686e-06
6.5530334e-06
7.2623739e-06
7.0938954e-06
6.4701036e-06
6.5167373e-06
3.2805657e-06
1.6827899e-06
1.119101e-06
7.1077731e-07
4.5505845e-07
2.7826825e-07
1.4827283e-07
6.2364956e-08
2.2667646e-08
7.3204303e-09
2.1440001e-09
5.7262328e-10
1.3784094e-10
2.9029677e-11
5.1079196e-12
7.5014842e-13
1.6576356e-13
1.3047214e-13
1.3941009e-13
3.8767976e-05
1.0748958e-05
9.0659193e-06
7.0236616e-06
3.934277e-06
4.6332771e-06
6.5376278e-06
7.2468132e-06
7.0790174e-06
6.4563801e-06
6.503875e-06
3.2739572e-06
1.6812623e-06
1.1179711e-06
7.1003198e-07
4.5457811e-07
2.7794397e-07
1.4804218e-07
6.225535e-08
2.2624714e-08
7.3060169e-09
2.1397128e-09
5.7147511e-10
1.3756551e-10
2.897205e-11
5.0979011e-12
7.4874927e-13
1.6551872e-13
1.3030539e-13
1.3923217e-13
3.8753408e-05
1.0770299e-05
9.0846548e-06
7.0401879e-06
3.9408221e-06
4.6202485e-06
6.5222994e-06
7.2314907e-06
7.0644866e-06
6.4428321e-06
6.49062e-06
3.26696e-06
1.6796364e-06
1.1168093e-06
7.0926052e-07
4.540739e-07
2.7759997e-07
1.477912e-07
6.2134818e-08
2.2577136e-08
7.2899586e-09
2.1349195e-09
5.7018855e-10
1.3725642e-10
2.890732e-11
5.0866518e-12
7.471932e-13
1.6526324e-13
1.3014011e-13
1.3905579e-13
3.873851e-05
1.0788037e-05
9.0997719e-06
7.055058e-06
3.9472845e-06
4.6074344e-06
6.5070041e-06
7.2163062e-06
7.0501868e-06
6.4297539e-06
6.4771251e-06
3.2597351e-06
1.6779597e-06
1.1156256e-06
7.0847277e-07
4.5355622e-07
2.7724609e-07
1.475323e-07
6.2010453e-08
2.2528062e-08
7.2734007e-09
2.1299781e-09
5.6886239e-10
1.3693782e-10
2.8840593e-11
5.0750482e-12
7.4557982e-13
1.6498955e-13
1.2995815e-13
1.3886154e-13
3.8723276e-05
1.0803449e-05
9.1128906e-06
7.0691979e-06
3.9537466e-06
4.5947776e-06
6.4917208e-06
7.2012001e-06
7.0360243e-06
6.4168933e-06
6.4634708e-06
3.2523716e-06
1.6762568e-06
1.114435e-06
7.076786e-07
4.5303206e-07
2.7688691e-07
1.4726821e-07
6.1883389e-08
2.2477873e-08
7.2564571e-09
2.1249201e-09
5.675047e-10
1.3661162e-10
2.877227e-11
5.063166e-12
7.4392674e-13
1.6470808e-13
1.2977043e-13
1.3866109e-13
3.8707702e-05
1.0817434e-05
9.1249452e-06
7.0830364e-06
3.960244e-06
4.5822523e-06
6.4764526e-06
7.1861419e-06
7.0219426e-06
6.4041309e-06
6.449713e-06
3.2449239e-06
1.6745426e-06
1.113244e-06
7.0688288e-07
4.5250562e-07
2.7652577e-07
1.47002e-07
6.1755218e-08
2.2427233e-08
7.2393597e-09
2.1198158e-09
5.6613454e-10
1.3628241e-10
2.8703314e-11
5.0511714e-12
7.4225592e-13
1.644214e-13
1.2957804e-13
1.3845563e-13
3.8691788e-05
1.0830578e-05
9.1364516e-06
7.0967717e-06
3.9667912e-06
4.5698295e-06
6.4611945e-06
7.1711184e-06
7.0079115e-06
6.391394e-06
6.4358828e-06
3.2374236e-06
1.6728253e-06
1.1120567e-06
7.0608867e-07
4.5197925e-07
2.7616432e-07
1.4673496e-07
6.1626572e-08
2.2376389e-08
7.2221903e-09
2.1146897e-09
5.6475846e-10
1.3595178e-10
2.863406e-11
5.039124e-12
7.4057664e-13
1.6413207e-13
1.2938319e-13
1.3824749e-13
3.8675532e-05
1.0843249e-05
9.1476912e-06
7.1104927e-06
3.9733925e-06
4.5575006e-06
6.4459455e-06
7.1561135e-06
6.9939088e-06
6.3786684e-06
6.4219976e-06
3.2298884e-06
1.6711097e-06
1.1108759e-06
7.0529802e-07
4.514546e-07
2.758038e-07
1.4646813e-07
6.1497985e-08
2.2325565e-08
7.2050272e-09
2.1095654e-09
5.6338288e-10
1.3562126e-10
2.8564827e-11
5.0270792e-12
7.388964e-13
1.6384118e-13
1.2918655e-13
1.3803742e-13
3.8658934e-05
1.0855674e-05
9.1588143e-06
7.1242333e-06
3.9800494e-06
4.5452535e-06
6.4307049e-06
7.1411221e-06
6.9799244e-06
6.3659485e-06
6.4080677e-06
3.2223295e-06
1.6693988e-06
1.1097029e-06
7.0451184e-07
4.509323e-07
2.754446e-07
1.4620182e-07
6.136959e-08
2.2274804e-08
7.1878844e-09
2.104447e-09
5.620089e-10
1.3529114e-10
2.8495681e-11
5.015049e-12
7.3721749e-13
1.6354968e-13
1.2898903e-13
1.3782639e-13
3.8641995e-05
1.0867983e-05
9.1699045e-06
7.1380133e-06
3.9867625e-06
4.5330793e-06
6.4154695e-06
7.1261416e-06
6.9659536e-06
6.3532319e-06
6.3941e-06
3.2147541e-06
1.6676947e-06
1.1085386e-06
7.0373087e-07
4.5041304e-07
2.7508731e-07
1.4593656e-07
6.1241681e-08
2.2224235e-08
7.1708058e-09
2.0993479e-09
5.6064009e-10
1.3496226e-10
2.8426791e-11
5.0030624e-12
7.3554361e-13
1.6325798e-13
1.2879081e-13
1.376146e-13
3.8624715e-05
1.0880244e-05
9.1810009e-06
7.1518405e-06
3.9935329e-06
4.5209828e-06
6.4002409e-06
7.1111615e-06
6.9519884e-06
6.3405149e-06
6.3800989e-06
3.207167e-06
1.6659989e-06
1.1073835e-06
7.0295548e-07
4.4989706e-07
2.7473204e-07
1.4567246e-07
6.1114291e-08
2.2173863e-08
7.1537935e-09
2.0942684e-09
5.5927657e-10
1.3463465e-10
2.8358168e-11
4.991122e-12
7.3387552e-13
1.6296657e-13
1.2859239e-13
1.3740255e-13
3.8607095e-05
1.0892489e-05
9.1921166e-06
7.1657151e-06
4.0003598e-06
4.5089519e-06
6.3850165e-06
7.096186e-06
6.938028e-06
6.3277967e-06
6.3660679e-06
3.1995716e-06
1.6643121e-06
1.1062383e-06
7.0218617e-07
4.4938478e-07
2.7437913e-07
1.4540976e-07
6.0987562e-08
2.2123756e-08
7.1368711e-09
2.089216e-09
5.5792033e-10
1.3430879e-10
2.8289911e-11
4.9792441e-12
7.3221521e-13
1.626755e-13
1.2839367e-13
1.3719019e-13
3.8589137e-05
1.0904738e-05
9.2032596e-06
7.1796345e-06
4.0072413e-06
4.4969857e-06
6.3697965e-06
7.0812132e-06
6.924071e-06
6.3150772e-06
6.3520088e-06
3.1919696e-06
1.662635e-06
1.1051031e-06
7.0142296e-07
4.4887609e-07
2.7402841e-07
1.4514832e-07
6.0861401e-08
2.2073864e-08
7.1200204e-09
2.0841849e-09
5.5656982e-10
1.3398432e-10
2.8221946e-11
4.9674169e-12
7.3056148e-13
1.6238501e-13
1.2819504e-13
1.3697791e-13
3.8570842e-05
1.0917005e-05
9.2144338e-06
7.193596e-06
4.0141787e-06
4.4850879e-06
6.3545813e-06
7.0662377e-06
6.9101138e-06
6.3023554e-06
6.3379223e-06
3.1843624e-06
1.6609681e-06
1.103978e-06
7.0066602e-07
4.4837125e-07
2.7368016e-07
1.4488841e-07
6.073596e-08
2.2024257e-08
7.1032666e-09
2.0791829e-09
5.5522711e-10
1.3366171e-10
2.815437e-11
4.9556565e-12
7.2891621e-13
1.6209511e-13
1.2799634e-13
1.3676555e-13
3.8552212e-05
1.0929298e-05
9.2256391e-06
7.2075962e-06
4.0211701e-06
4.4732502e-06
6.3393693e-06
7.0512638e-06
6.896158e-06
6.2896313e-06
6.3238086e-06
3.1767504e-06
1.6593118e-06
1.1028632e-06
6.9991541e-07
4.4787025e-07
2.7333432e-07
1.4462998e-07
6.0611201e-08
2.1974914e-08
7.0866009e-09
2.074207e-09
5.5389139e-10
1.3334078e-10
2.8087144e-11
4.9439566e-12
7.2727889e-13
1.6180606e-13
1.2779793e-13
1.3655349e-13
3.8533248e-05
1.0941623e-05
9.236876e-06
7.2216303e-06
4.0282156e-06
4.4614783e-06
6.3241624e-06
7.0362864e-06
6.8822014e-06
6.2769037e-06
6.3096678e-06
3.1691343e-06
1.6576664e-06
1.101759e-06
6.9917143e-07
4.4737333e-07
2.7299109e-07
1.4437318e-07
6.0487216e-08
2.192588e-08
7.0700408e-09
2.0692629e-09
5.5256424e-10
1.3302191e-10
2.8020349e-11
4.9323304e-12
7.2565097e-13
1.6151773e-13
1.2759953e-13
1.3634143e-13
3.8513953e-05
1.095398e-05
9.248145e-06
7.2356979e-06
4.0353162e-06
4.4497684e-06
6.3089588e-06
7.0213074e-06
6.8682444e-06
6.264173e-06
6.2955002e-06
3.161514e-06
1.6560321e-06
1.1006655e-06
6.9843393e-07
4.4688027e-07
2.7265025e-07
1.441178e-07
6.0363871e-08
2.187709e-08
7.0535615e-09
2.0643426e-09
5.5124347e-10
1.3270458e-10
2.7953875e-11
4.9207603e-12
7.240305e-13
1.6123026e-13
1.2740149e-13
1.3612975e-13
3.849433e-05
1.0966371e-05
9.2594439e-06
7.2497948e-06
4.0424673e-06
4.4381162e-06
6.2937599e-06
7.0063299e-06
6.8542887e-06
6.2514408e-06
6.281306e-06
3.1538903e-06
1.6544093e-06
1.0995828e-06
6.9770304e-07
4.4639129e-07
2.7231201e-07
1.4386407e-07
6.0241309e-08
2.182861e-08
7.0371877e-09
2.059454e-09
5.4993119e-10
1.3238928e-10
2.7887826e-11
4.9092629e-12
7.2241936e-13
1.609436e-13
1.2720356e-13
1.3591819e-13
3.847438e-05
1.0978793e-05
9.270771e-06
7.2639214e-06
4.0496739e-06
4.4265321e-06
6.2785667e-06
6.9913456e-06
6.8403302e-06
6.238706e-06
6.2670851e-06
3.146263e-06
1.6527984e-06
1.0985108e-06
6.9697872e-07
4.4590626e-07
2.7197625e-07
1.4361188e-07
6.0119459e-08
2.1780406e-08
7.020906e-09
2.0545927e-09
5.486262e-10
1.3207572e-10
2.7822141e-11
4.8978285e-12
7.2081655e-13
1.6065788e-13
1.27006e-13
1.35707e-13
3.8454107e-05
1.0991244e-05
9.2821228e-06
7.2780775e-06
4.0569342e-06
4.415007e-06
6.2633773e-06
6.9763609e-06
6.8263711e-06
6.2259696e-06
6.2528366e-06
3.138632e-06
1.6511998e-06
1.0974501e-06
6.9626127e-07
4.4542543e-07
2.7164315e-07
1.4336135e-07
5.9998398e-08
2.1732517e-08
7.0047322e-09
2.0497639e-09
5.4733e-10
1.3176428e-10
2.7756899e-11
4.8864702e-12
7.192235e-13
1.6037299e-13
1.2680856e-13
1.3549595e-13
3.8433513e-05
1.1003723e-05
9.2934967e-06
7.2922581e-06
4.0642448e-06
4.4035405e-06
6.248194e-06
6.9613759e-06
6.8124114e-06
6.2132322e-06
6.2385603e-06
3.1309974e-06
1.6496142e-06
1.0964007e-06
6.9555052e-07
4.4494855e-07
2.7131247e-07
1.4311226e-07
5.9877983e-08
2.1684873e-08
6.9886391e-09
2.0449589e-09
5.4604013e-10
1.3145436e-10
2.7691974e-11
4.8751671e-12
7.1763784e-13
1.6008899e-13
1.266115e-13
1.3528529e-13
3.8412602e-05
1.1016225e-05
9.304895e-06
7.3064725e-06
4.071613e-06
4.3921415e-06
6.2330148e-06
6.9463837e-06
6.7984491e-06
6.2004936e-06
6.2242554e-06
3.1233595e-06
1.648043e-06
1.0953627e-06
6.948466e-07
4.4447582e-07
2.7098441e-07
1.4286482e-07
5.9758348e-08
2.1637537e-08
6.9726505e-09
2.0401852e-09
5.4475866e-10
1.3114645e-10
2.762747e-11
4.8639361e-12
7.1606141e-13
1.5980577e-13
1.2641455e-13
1.3507476e-13
3.8391378e-05
1.1028748e-05
9.3163113e-06
7.3207082e-06
4.0790314e-06
4.3808007e-06
6.2178429e-06
6.9313933e-06
6.7844882e-06
6.1877558e-06
6.2099216e-06
3.115719e-06
1.6464883e-06
1.0943363e-06
6.9414948e-07
4.4400714e-07
2.7065888e-07
1.4261894e-07
5.9639429e-08
2.1590478e-08
6.956754e-09
2.0354387e-09
5.4348446e-10
1.3084028e-10
2.7563328e-11
4.8527677e-12
7.1449335e-13
1.5952362e-13
1.2621812e-13
1.3486476e-13
3.8369845e-05
1.1041296e-05
9.3277487e-06
7.3349666e-06
4.086503e-06
4.3695224e-06
6.202677e-06
6.9163994e-06
6.7705255e-06
6.1750185e-06
6.1955586e-06
3.1080769e-06
1.6449538e-06
1.0933221e-06
6.9345949e-07
4.4354276e-07
2.7033606e-07
1.4237475e-07
5.9521314e-08
2.1543739e-08
6.9409672e-09
2.0307253e-09
5.4221918e-10
1.3053626e-10
2.7499636e-11
4.8416766e-12
7.1293519e-13
1.5924228e-13
1.2602177e-13
1.3465486e-13
3.8348007e-05
1.1053874e-05
9.3392104e-06
7.3492545e-06
4.0940295e-06
4.3583089e-06
6.1875171e-06
6.9014005e-06
6.7565608e-06
6.1622826e-06
6.1811653e-06
3.1004341e-06
1.643446e-06
1.0923202e-06
6.9277651e-07
4.4308241e-07
2.7001568e-07
1.4213201e-07
5.9403841e-08
2.1497241e-08
6.9252595e-09
2.026035e-09
5.4096006e-10
1.3023371e-10
2.7436251e-11
4.8306388e-12
7.1138417e-13
1.5896183e-13
1.2582583e-13
1.3444539e-13
3.8325868e-05
1.1066485e-05
9.3506883e-06
7.3635569e-06
4.1016053e-06
4.3471524e-06
6.1723658e-06
6.8864042e-06
6.7425975e-06
6.1495507e-06
6.1667404e-06
3.0927924e-06
1.6419771e-06
1.0913311e-06
6.9210074e-07
4.4262632e-07
2.6969799e-07
1.4189094e-07
5.9287157e-08
2.1451056e-08
6.9096574e-09
2.0213764e-09
5.3970943e-10
1.2993319e-10
2.7373291e-11
4.819674e-12
7.0984257e-13
1.5868225e-13
1.2563009e-13
1.3423613e-13
3.8303433e-05
1.1079135e-05
9.362189e-06
7.3778917e-06
4.1092393e-06
4.3360627e-06
6.1572188e-06
6.8714001e-06
6.7286299e-06
6.1368218e-06
6.1522818e-06
3.0851522e-06
1.6405692e-06
1.090355e-06
6.9143227e-07
4.421744e-07
2.6938284e-07
1.4165144e-07
5.917119e-08
2.1405146e-08
6.8941472e-09
2.0167449e-09
5.3846604e-10
1.2963441e-10
2.7310692e-11
4.8087716e-12
7.0830932e-13
1.5840373e-13
1.2543485e-13
1.3402738e-13
3.8280708e-05
1.1091816e-05
9.3737073e-06
7.3922481e-06
4.1169241e-06
4.3250357e-06
6.1420813e-06
6.8563934e-06
6.714661e-06
6.1240921e-06
6.1378119e-06
3.0775325e-06
1.6392628e-06
1.0893919e-06
6.9077166e-07
4.4172694e-07
2.6907045e-07
1.4141362e-07
5.905602e-08
2.1359554e-08
6.8787459e-09
2.0121464e-09
5.3723157e-10
1.2933778e-10
2.7248544e-11
4.797947e-12
7.0678604e-13
1.5812605e-13
1.2523971e-13
1.3381875e-13
3.8257698e-05
1.1104521e-05
9.3852386e-06
7.4066237e-06
4.1246613e-06
4.3140662e-06
6.1269514e-06
6.8413886e-06
6.7006928e-06
6.1113608e-06
6.1233347e-06
3.0699283e-06
1.6381324e-06
1.0884395e-06
6.9011899e-07
4.4128374e-07
2.6876053e-07
1.4117724e-07
5.8941478e-08
2.1314195e-08
6.8634204e-09
2.0075699e-09
5.3600291e-10
1.2904254e-10
2.7186686e-11
4.7871726e-12
7.0526954e-13
1.5784925e-13
1.2504501e-13
1.3361059e-13
3.8234409e-05
1.1117242e-05
9.3967903e-06
7.4210309e-06
4.1324541e-06
4.3031669e-06
6.1118299e-06
6.8263761e-06
6.6867212e-06
6.0986286e-06
6.1088452e-06
3.0623038e-06
1.6373169e-06
1.0874895e-06
6.8947476e-07
4.4084514e-07
2.6845336e-07
1.4094253e-07
5.8827718e-08
2.1269145e-08
6.848199e-09
2.0030247e-09
5.3478264e-10
1.287493e-10
2.7125248e-11
4.7764704e-12
7.0376235e-13
1.5757329e-13
1.2485049e-13
1.3340261e-13
3.8210848e-05
1.112998e-05
9.4083638e-06
7.4354631e-06
4.1402984e-06
4.2923275e-06
6.0967196e-06
6.8113634e-06
6.67275e-06
6.0858974e-06
6.0943386e-06
3.0546392e-06
1.636938e-06
1.0865367e-06
6.888394e-07
4.4041123e-07
2.6814886e-07
1.4070942e-07
5.8714673e-08
2.1224366e-08
6.8330674e-09
1.9985057e-09
5.3356937e-10
1.2845774e-10
2.7064157e-11
4.7658281e-12
7.022632e-13
1.572984e-13
1.246565e-13
1.3319519e-13
3.8187022e-05
1.1142738e-05
9.4199624e-06
7.4499331e-06
4.1482007e-06
4.2815488e-06
6.0816139e-06
6.7963498e-06
6.6587784e-06
6.0731664e-06
6.0798106e-06
3.0469222e-06
1.6371142e-06
1.0855775e-06
6.8821385e-07
4.3998254e-07
2.6784732e-07
1.4047806e-07
5.8602442e-08
2.1179909e-08
6.8180457e-09
1.99402e-09
5.3236507e-10
1.2816834e-10
2.7003519e-11
4.7552639e-12
7.0077404e-13
1.5702433e-13
1.244626e-13
1.3298787e-13
3.8162938e-05
1.115552e-05
9.4315859e-06
7.4644322e-06
4.1561554e-06
4.2708404e-06
6.0665212e-06
6.7813278e-06
6.6448028e-06
6.060436e-06
6.0652591e-06
3.0391598e-06
1.6379242e-06
1.0846125e-06
6.8759889e-07
4.3955912e-07
2.6754851e-07
1.4024819e-07
5.8490847e-08
2.1135684e-08
6.8030985e-09
1.9895557e-09
5.3116639e-10
1.2788027e-10
2.6943159e-11
4.7447478e-12
6.9929146e-13
1.567512e-13
1.2426923e-13
1.327811e-13
3.8138605e-05
1.1168328e-05
9.4432368e-06
7.4789624e-06
4.1641649e-06
4.2601902e-06
6.0514366e-06
6.7663056e-06
6.6308282e-06
6.0477091e-06
6.0506844e-06
3.0313692e-06
1.6394226e-06
1.0836449e-06
6.8699592e-07
4.391417e-07
2.6725285e-07
1.4002013e-07
5.8380067e-08
2.1091776e-08
6.7882577e-09
1.9851232e-09
5.2997623e-10
1.2759425e-10
2.6883225e-11
4.7343049e-12
6.9781828e-13
1.5647891e-13
1.2407601e-13
1.3257451e-13
3.8114029e-05
1.1181161e-05
9.4549119e-06
7.4935204e-06
4.172226e-06
4.2496018e-06
6.0363634e-06
6.7512832e-06
6.6168548e-06
6.0349866e-06
6.0360905e-06
3.0235872e-06
1.6416063e-06
1.0826835e-06
6.864065e-07
4.387307e-07
2.6696033e-07
1.397938e-07
5.8270032e-08
2.1048145e-08
6.7735072e-09
1.9807169e-09
5.2879301e-10
1.2730987e-10
2.6823631e-11
4.7239207e-12
6.96353e-13
1.5620769e-13
1.2388334e-13
1.3236847e-13
3.8089221e-05
1.1194017e-05
9.4666053e-06
7.508101e-06
4.1803428e-06
4.2390839e-06
6.0213026e-06
6.7362525e-06
6.6028784e-06
6.0222675e-06
6.0214844e-06
3.015863e-06
1.6444233e-06
1.0817419e-06
6.8583302e-07
4.383271e-07
2.666714e-07
1.3956939e-07
5.8160847e-08
2.1004843e-08
6.7588681e-09
1.9763442e-09
5.2761884e-10
1.2702767e-10
2.6764496e-11
4.7136153e-12
6.948978e-13
1.5593727e-13
1.2369074e-13
1.3216252e-13
3.806419e-05
1.1206894e-05
9.4783148e-06
7.5227121e-06
4.1885175e-06
4.2286247e-06
6.0062512e-06
6.7212216e-06
6.588902e-06
6.0095542e-06
6.0068757e-06
3.0082508e-06
1.6477816e-06
1.0808357e-06
6.8527763e-07
4.3793137e-07
2.6638597e-07
1.3934669e-07
5.8052332e-08
2.0961774e-08
6.7443012e-09
1.9719918e-09
5.2644991e-10
1.267467e-10
2.6705615e-11
4.7033539e-12
6.9344858e-13
1.556677e-13
1.2349861e-13
1.3195707e-13
3.8038946e-05
1.121979e-05
9.4900415e-06
7.5373497e-06
4.1967424e-06
4.2182305e-06
5.9912121e-06
6.7061901e-06
6.5749278e-06
5.9968476e-06
5.9922762e-06
3.0008035e-06
1.6515598e-06
1.0799827e-06
6.847432e-07
4.3754472e-07
2.6610469e-07
1.391261e-07
5.7944698e-08
2.0919034e-08
6.7298424e-09
1.9676712e-09
5.2528944e-10
1.2646776e-10
2.6647153e-11
4.6931645e-12
6.9200858e-13
1.5539893e-13
1.233066e-13
1.3175175e-13
3.80135e-05
1.1232709e-05
9.5017908e-06
7.552024e-06
4.2050299e-06
4.2079101e-06
5.9761789e-06
6.6911466e-06
6.5609538e-06
5.9841477e-06
5.9776981e-06
2.9935634e-06
1.6556245e-06
1.0791994e-06
6.8423246e-07
4.3716798e-07
2.6582776e-07
1.3890762e-07
5.7837896e-08
2.0876587e-08
6.7154759e-09
1.963377e-09
5.2413582e-10
1.2619041e-10
2.6589022e-11
4.6830315e-12
6.9057616e-13
1.551312e-13
1.2311515e-13
1.31547e-13
3.7987863e-05
1.124565e-05
9.5135571e-06
7.5667191e-06
4.2133669e-06
4.1976527e-06
5.9611539e-06
6.6761048e-06
6.5469853e-06
5.971457e-06
5.9631534e-06
2.9865592e-06
1.659843e-06
1.0785011e-06
6.8374861e-07
4.3680252e-07
2.6555587e-07
1.3869156e-07
5.7732077e-08
2.08345e-08
6.7012276e-09
1.9591175e-09
5.2299148e-10
1.2591529e-10
2.6531353e-11
4.6729779e-12
6.8915386e-13
1.5486429e-13
1.2292377e-13
1.3134235e-13
3.7962048e-05
1.1258618e-05
9.5253479e-06
7.5814428e-06
4.2217584e-06
4.187463e-06
5.9461307e-06
6.6610648e-06
6.5330212e-06
5.9587745e-06
5.9486524e-06
2.9798032e-06
1.6640936e-06
1.0778989e-06
6.832941e-07
4.3644907e-07
2.6528913e-07
1.384778e-07
5.7627093e-08
2.0792687e-08
6.6870605e-09
1.9548802e-09
5.2185268e-10
1.2564144e-10
2.6473943e-11
4.6629683e-12
6.877375e-13
1.5459823e-13
1.2273287e-13
1.3113819e-13
3.7936067e-05
1.1271616e-05
9.5371651e-06
7.5961971e-06
4.2302075e-06
4.1773477e-06
5.9311108e-06
6.6460219e-06
6.5190589e-06
5.9461006e-06
5.934203e-06
2.9732941e-06
1.6682722e-06
1.0774005e-06
6.8287148e-07
4.3610897e-07
2.6502836e-07
1.3826682e-07
5.7523182e-08
2.075125e-08
6.6730119e-09
1.9506768e-09
5.2072276e-10
1.2536967e-10
2.6416962e-11
4.6530318e-12
6.8633046e-13
1.5433297e-13
1.225421e-13
1.3093418e-13
3.7909934e-05
1.1284646e-05
9.5490025e-06
7.6109648e-06
4.2387081e-06
4.1672947e-06
5.9160951e-06
6.6309855e-06
6.5051026e-06
5.9334374e-06
5.9198114e-06
2.9670205e-06
1.6722954e-06
1.0770094e-06
6.824826e-07
4.3578307e-07
2.6477389e-07
1.3805872e-07
5.7420334e-08
2.0710167e-08
6.6590701e-09
1.9465028e-09
5.1960027e-10
1.2509962e-10
2.6360328e-11
4.643154e-12
6.8493125e-13
1.5406882e-13
1.2235194e-13
1.3073079e-13
3.7883664e-05
1.1297707e-05
9.5608654e-06
7.6257678e-06
4.2472704e-06
4.1573149e-06
5.9010776e-06
6.615948e-06
6.4911484e-06
5.9207821e-06
5.9054818e-06
2.9609664e-06
1.6761009e-06
1.0767265e-06
6.8212924e-07
4.3547262e-07
2.6452652e-07
1.3785386e-07
5.7318726e-08
2.0669514e-08
6.6452625e-09
1.9423671e-09
5.1848775e-10
1.2483191e-10
2.6304176e-11
4.633358e-12
6.8354237e-13
1.5380545e-13
1.221618e-13
1.3052744e-13
3.7857271e-05
1.1310791e-05
9.5727458e-06
7.6405967e-06
4.2558858e-06
4.1474096e-06
5.8860682e-06
6.600909e-06
6.4771958e-06
5.9081349e-06
5.8912162e-06
2.9551191e-06
1.6796482e-06
1.07655e-06
6.8181201e-07
4.3517805e-07
2.6428638e-07
1.3765216e-07
5.7218226e-08
2.0629206e-08
6.6315528e-09
1.9382569e-09
5.1738138e-10
1.2456556e-10
2.6248292e-11
4.6236068e-12
6.8215944e-13
1.5354294e-13
1.2197216e-13
1.3032461e-13
3.7830773e-05
1.1323893e-05
9.5846391e-06
7.6554501e-06
4.2645585e-06
4.1375749e-06
5.8710595e-06
6.5858756e-06
6.4632495e-06
5.8954979e-06
5.8770152e-06
2.9494805e-06
1.6829191e-06
1.0764784e-06
6.815314e-07
4.3490033e-07
2.6405427e-07
1.3745417e-07
5.7119117e-08
2.0589365e-08
6.6179844e-09
1.9341857e-09
5.1628492e-10
1.2430149e-10
2.6192868e-11
4.6139326e-12
6.8078623e-13
1.5328128e-13
1.2178267e-13
1.3012195e-13
3.7804186e-05
1.1337009e-05
9.5965457e-06
7.6703305e-06
4.2732839e-06
4.1278162e-06
5.8560571e-06
6.5708438e-06
6.4493069e-06
5.8828686e-06
5.8628758e-06
2.944048e-06
1.6859215e-06
1.0765091e-06
6.8128715e-07
4.3463982e-07
2.638305e-07
1.3726001e-07
5.7021408e-08
2.0549976e-08
6.6045475e-09
1.9301495e-09
5.15197e-10
1.2403932e-10
2.613782e-11
4.6043206e-12
6.7942107e-13
1.5302068e-13
1.2159372e-13
1.2991983e-13
3.7777528e-05
1.1350138e-05
9.6084695e-06
7.6852463e-06
4.282068e-06
4.118131e-06
5.8410597e-06
6.5558105e-06
6.4353664e-06
5.8702454e-06
5.8487895e-06
2.9387378e-06
1.6886682e-06
1.0766227e-06
6.8107868e-07
4.3439717e-07
2.6361571e-07
1.3707004e-07
5.6925293e-08
2.0511123e-08
6.5912727e-09
1.926158e-09
5.1412038e-10
1.2377974e-10
2.6083292e-11
4.5947951e-12
6.780667e-13
1.5276092e-13
1.2140482e-13
1.2971779e-13
3.7750818e-05
1.1363286e-05
9.6204132e-06
7.7002004e-06
4.2909092e-06
4.1085122e-06
5.8260643e-06
6.5407824e-06
6.4214302e-06
5.8576284e-06
5.8347467e-06
2.9335049e-06
1.6911653e-06
1.0768053e-06
6.809043e-07
4.3417222e-07
2.6340993e-07
1.3688421e-07
5.6830673e-08
2.0472741e-08
6.5781299e-09
1.9222003e-09
5.1305174e-10
1.2352187e-10
2.6029092e-11
4.5853226e-12
6.7671912e-13
1.5250206e-13
1.2121642e-13
1.2951626e-13
3.7724077e-05
1.1376459e-05
9.6323784e-06
7.7151802e-06
4.2998044e-06
4.0989682e-06
5.8110748e-06
6.5257554e-06
6.4074971e-06
5.8450162e-06
5.8207368e-06
2.9283065e-06
1.6934036e-06
1.0770417e-06
6.8076221e-07
4.3396523e-07
2.6321375e-07
1.3670301e-07
5.6737825e-08
2.043495e-08
6.5651635e-09
1.9182904e-09
5.1199491e-10
1.2326666e-10
2.5975416e-11
4.575936e-12
6.7538215e-13
1.5224411e-13
1.2102818e-13
1.2931491e-13
3.7697326e-05
1.1389659e-05
9.6443713e-06
7.7301975e-06
4.3087616e-06
4.0895002e-06
5.7960881e-06
6.510726e-06
6.3935657e-06
5.8324069e-06
5.8067482e-06
2.9231012e-06
1.6953415e-06
1.0773135e-06
6.8064979e-07
4.337758e-07
2.6302718e-07
1.3652648e-07
5.6646753e-08
2.0397742e-08
6.5523664e-09
1.9144251e-09
5.1094885e-10
1.2301381e-10
2.5922194e-11
4.5666228e-12
6.7405446e-13
1.5198731e-13
1.2084049e-13
1.2911411e-13
3.7670588e-05
1.1402887e-05
9.6563882e-06
7.7452396e-06
4.3177694e-06
4.0800989e-06
5.781107e-06
6.4957027e-06
6.3796401e-06
5.8198006e-06
5.7927705e-06
2.9178623e-06
1.6969877e-06
1.0776062e-06
6.8056455e-07
4.3360384e-07
2.628506e-07
1.3635491e-07
5.6557633e-08
2.0361198e-08
6.5397699e-09
1.9106146e-09
5.0991644e-10
1.2276402e-10
2.5869578e-11
4.5574087e-12
6.7273895e-13
1.5173147e-13
1.2065289e-13
1.2891343e-13
3.7643885e-05
1.141614e-05
9.6684279e-06
7.760313e-06
4.3268356e-06
4.070772e-06
5.7661286e-06
6.480679e-06
6.3657174e-06
5.8071947e-06
5.7787942e-06
2.9125665e-06
1.6983713e-06
1.0779064e-06
6.8050311e-07
4.3344839e-07
2.6268366e-07
1.3618813e-07
5.6470342e-08
2.0325251e-08
6.5273447e-09
1.9068485e-09
5.0889453e-10
1.2251648e-10
2.5817388e-11
4.5482621e-12
6.7143177e-13
1.5147662e-13
1.2046577e-13
1.2871324e-13
3.7617243e-05
1.1429414e-05
9.6804846e-06
7.7754196e-06
4.3359597e-06
4.0615226e-06
5.7511571e-06
6.4656549e-06
6.3517971e-06
5.794588e-06
5.7648104e-06
2.9071964e-06
1.6995131e-06
1.0782029e-06
6.8046234e-07
4.3330892e-07
2.625266e-07
1.3602646e-07
5.6385113e-08
2.0290011e-08
6.5151333e-09
1.9031405e-09
5.0788698e-10
1.2227214e-10
2.576582e-11
4.539216e-12
6.7013679e-13
1.5122273e-13
1.2027875e-13
1.2851316e-13
3.7590688e-05
1.1442707e-05
9.6925573e-06
7.7905563e-06
4.3451394e-06
4.0523407e-06
5.7361895e-06
6.4506355e-06
6.3378823e-06
5.7819809e-06
5.7508126e-06
2.9017406e-06
1.7004302e-06
1.0784858e-06
6.804387e-07
4.3318434e-07
2.6237909e-07
1.3586985e-07
5.6301921e-08
2.0255466e-08
6.5031291e-09
1.8994881e-09
5.0689294e-10
1.2203076e-10
2.5714821e-11
4.5302608e-12
6.6885309e-13
1.5097017e-13
1.2009233e-13
1.2831371e-13
3.7564248e-05
1.1456019e-05
9.7046502e-06
7.8057315e-06
4.3543784e-06
4.0432341e-06
5.7212249e-06
6.4356157e-06
6.3239696e-06
5.7693705e-06
5.7367954e-06
2.8961915e-06
1.7011419e-06
1.0787474e-06
6.8042904e-07
4.3307381e-07
2.6224109e-07
1.3571842e-07
5.6220894e-08
2.0221687e-08
6.4913619e-09
1.8959014e-09
5.0591536e-10
1.2179309e-10
2.5664551e-11
4.5214241e-12
6.6758376e-13
1.507187e-13
1.19906e-13
1.2811434e-13
3.7537952e-05
1.1469354e-05
9.7167611e-06
7.8209331e-06
4.363674e-06
4.0342049e-06
5.7062665e-06
6.4205946e-06
6.3100602e-06
5.756756e-06
5.722755e-06
2.8905438e-06
1.7016611e-06
1.0789803e-06
6.8042963e-07
4.3297572e-07
2.6211188e-07
1.355718e-07
5.6141853e-08
2.0188592e-08
6.4798004e-09
1.8923699e-09
5.0495122e-10
1.2155835e-10
2.5614841e-11
4.5126764e-12
6.6632531e-13
1.5046839e-13
1.1972011e-13
1.2791544e-13
3.7511829e-05
1.1482716e-05
9.7288946e-06
7.8361642e-06
4.373027e-06
4.0252453e-06
5.6913113e-06
6.4055773e-06
6.296156e-06
5.7441375e-06
5.7086895e-06
2.8847966e-06
1.7020037e-06
1.079179e-06
6.804372e-07
4.3288897e-07
2.6199128e-07
1.3543015e-07
5.606496e-08
2.0156274e-08
6.4684821e-09
1.8889064e-09
5.0400422e-10
1.2132748e-10
2.5565892e-11
4.5040518e-12
6.6508177e-13
1.5021927e-13
1.1953438e-13
1.277167e-13
3.7485912e-05
1.149611e-05
9.7410566e-06
7.8514286e-06
4.3824347e-06
4.0163588e-06
5.6763598e-06
6.3905613e-06
6.2822561e-06
5.731514e-06
5.6945981e-06
2.8789504e-06
1.7021807e-06
1.0793383e-06
6.8044827e-07
4.3281188e-07
2.6187855e-07
1.3529318e-07
5.5990112e-08
2.0124696e-08
6.4573951e-09
1.8855072e-09
5.0307335e-10
1.2110023e-10
2.5517649e-11
4.4955413e-12
6.6385234e-13
1.4997165e-13
1.1934921e-13
1.2751854e-13
3.7460234e-05
1.1509543e-05
9.7532482e-06
7.8667254e-06
4.3919015e-06
4.007549e-06
5.6614119e-06
6.3755421e-06
6.268358e-06
5.7188836e-06
5.6804814e-06
2.8730079e-06
1.7022046e-06
1.0794548e-06
6.8045996e-07
4.3274319e-07
2.6177329e-07
1.3516078e-07
5.591735e-08
2.0093901e-08
6.4465614e-09
1.8821808e-09
5.0216122e-10
1.2087729e-10
2.5470266e-11
4.4871719e-12
6.6264012e-13
1.4972531e-13
1.191641e-13
1.2732043e-13
3.7434831e-05
1.1523017e-05
9.7654649e-06
7.8820481e-06
4.4014251e-06
3.9988106e-06
5.6464676e-06
6.360525e-06
6.2544639e-06
5.7062463e-06
5.6663408e-06
2.8669727e-06
1.7020844e-06
1.079525e-06
6.8046886e-07
4.3268087e-07
2.6167438e-07
1.350324e-07
5.5846403e-08
2.0063777e-08
6.4359409e-09
1.8789144e-09
5.0126429e-10
1.2065778e-10
2.5423558e-11
4.4789118e-12
6.6144133e-13
1.494803e-13
1.1897942e-13
1.2712277e-13
3.7409738e-05
1.1536529e-05
9.7777012e-06
7.8973969e-06
4.4110046e-06
3.9901443e-06
5.6315256e-06
6.3455101e-06
6.2405758e-06
5.693603e-06
5.6521792e-06
2.8608502e-06
1.70183e-06
1.0795463e-06
6.8047221e-07
4.3262355e-07
2.6158136e-07
1.34908e-07
5.5777367e-08
2.0034393e-08
6.4255654e-09
1.8757195e-09
5.0038605e-10
1.2044261e-10
2.5377724e-11
4.4707959e-12
6.6026028e-13
1.4923671e-13
1.1879491e-13
1.2692529e-13
3.7384995e-05
1.1550073e-05
9.7899526e-06
7.9127849e-06
4.4206456e-06
3.9815567e-06
5.6165875e-06
6.330492e-06
6.2266892e-06
5.6809521e-06
5.6379994e-06
2.8546457e-06
1.7014497e-06
1.0795166e-06
6.8046716e-07
4.3256937e-07
2.6149318e-07
1.347871e-07
5.5710047e-08
2.0005681e-08
6.4154133e-09
1.8725901e-09
4.9952491e-10
1.2023142e-10
2.533269e-11
4.4628123e-12
6.5909579e-13
1.4899478e-13
1.1861092e-13
1.2672832e-13
3.7360641e-05
1.1563644e-05
9.8022123e-06
7.9281971e-06
4.4303436e-06
3.9730421e-06
5.6016532e-06
6.315475e-06
6.2128073e-06
5.6682945e-06
5.6238052e-06
2.8483659e-06
1.7009517e-06
1.0794351e-06
6.8045153e-07
4.3251695e-07
2.614092e-07
1.3466945e-07
5.5644411e-08
1.9977659e-08
6.4054988e-09
1.8695323e-09
4.9868304e-10
1.2002482e-10
2.5288597e-11
4.4549868e-12
6.5795091e-13
1.4875433e-13
1.1842698e-13
1.2653142e-13
3.7336718e-05
1.1577238e-05
9.8144849e-06
7.9436372e-06
4.4400996e-06
3.9646001e-06
5.5867208e-06
6.3004608e-06
6.1989305e-06
5.6556301e-06
5.6096006e-06
2.8420174e-06
1.7003434e-06
1.0793008e-06
6.8042278e-07
4.3246431e-07
2.6132815e-07
1.3455434e-07
5.5580122e-08
1.9950189e-08
6.3957736e-09
1.8665314e-09
4.9785636e-10
1.1982181e-10
2.5245241e-11
4.4472848e-12
6.5682168e-13
1.4851543e-13
1.1824353e-13