/*--------------------------------*- C++ -*----------------------------------*\
| =========                 |                                                 |
| \\      /  F ield         | OpenFOAM: The Open Source CFD Toolbox           |
|  \\    /   O peration     | Version:  v2012                                 |
|   \\  /    A nd           | Website:  www.openfoam.com                      |
|    \\/     M anipulation  |                                                 |
\*---------------------------------------------------------------------------*/
FoamFile
{
    version     2.0;
    format      ascii;
    class       volScalarField;
    location    "400";
    object      omega;
}
// * * * * * * * * * * * * * * * * * * * * * * * * * * * * * * * * * * * * * //

dimensions      [0 0 -1 0 0 0 0];


internalField   nonuniform List<scalar> 
24000
(
2479.5024
3386.2242
4059.3946
7430.9528
24549.042
73577.135
137317.16
188869.25
224070.72
231685.24
224269.06
279812.61
543117.6
999410.72
1478029.9
1944300.4
2442790.3
3090797.2
4086905.4
5744933.3
8573494
13456809
22059511
37776039
68179376
1.3222221e+08
2.854533e+08
7.3269164e+08
2.5527e+09
1.7232166e+10
2480.4443
3386.3274
4059.158
7429.1781
24475.263
73199.772
136839.87
188385.98
223647.46
231381.78
223842.34
278482.99
539936.19
995081.64
1472864.7
1938300.3
2435612.6
3082093.4
4076759.6
5733734.5
8561266.6
13442495
22040358
37746552
68128424
1.321243e+08
2.8523881e+08
7.321176e+08
2.5505221e+09
1.7221013e+10
2481.5204
3386.2574
4058.0395
7420.5226
24392.204
72922.635
136571.9
188176.82
223473.15
231274.01
223725.14
278093.83
538663.76
992904.67
1470195.1
1935470.7
2432716.1
3078836.9
4072455
5727527.9
8552424.2
13430428
22024191
37724234
68095043
1.3206817e+08
2.8512994e+08
7.3186554e+08
2.5497717e+09
1.721395e+10
2482.6004
3386.281
4057.0447
7411.3026
24316.114
72669.199
136306.44
187944.66
223249.04
231105.39
223598.73
277938.21
538151.94
991640.98
1468568.3
1933761.5
2431119.3
3077555.9
4071729.6
5727607.8
8553372.8
13432040
22026037
37725708
68095266
1.320654e+08
2.8511926e+08
7.3182713e+08
2.5495836e+09
1.7213594e+10
2483.6874
3386.3592
4056.0615
7401.6476
24242.159
72421.976
136042.02
187702.93
223027.93
230922.58
223453.19
277848.41
537943.59
990742.39
1467192.8
1932088.4
2429279.3
3075601.9
4069614.3
5725160
8550382
13428226
22020907
37718270
68083382
1.3204412e+08
2.8507556e+08
7.3171902e+08
2.5492219e+09
1.7210969e+10
2484.7852
3386.5101
4055.1534
7392.0015
24169.933
72178.505
135779.32
187458.62
222810.31
230733.01
223298.73
277785.99
537917.53
990126.74
1466126
1930724.9
2427778.2
3074102.4
4068213.4
5723885.9
8549166.6
13426884
22019097
37715387
68078250
1.3203412e+08
2.8505377e+08
7.3166224e+08
2.5490183e+09
1.720972e+10
2485.8978
3386.7216
4054.3043
7382.4237
24098.793
71936.929
135516.3
187216.28
222594.43
230539.15
223138.85
277742.11
537997.55
989663.86
1465207.7
1929470.8
2426332.9
3072599.8
4066742.6
5722464.2
8547724.7
13425251
22016962
37712179
68072830
1.3202393e+08
2.8503204e+08
7.3160666e+08
2.5488235e+09
1.7208456e+10
2487.028
3386.9842
4053.5025
7372.9304
24028.435
71696.616
135252.87
186976.03
222379.51
230343.23
222976.16
277709.12
538141.73
989294.36
1464383.5
1928294
2424945.5
3071146.1
4065331.3
5721136.4
8546434.7
13423854
22015185
37709528
68068335
1.3201542e+08
2.850138e+08
7.315597e+08
2.5486575e+09
1.7207404e+10
2488.1778
3387.2893
4052.7371
7363.5144
23958.663
71457.206
134989.14
186736.94
222165.1
230145.66
222811.89
277683.07
538325.11
988980.29
1463614.4
1927161.1
2423587.7
3069710.7
4063933
5719823.5
8545169.5
13422503
22013493
37707034
68064132
1.3200749e+08
2.8499683e+08
7.3151602e+08
2.548503e+09
1.7206426e+10
2489.3484
3387.6311
4052.0009
7354.1649
23889.36
71218.51
134725.13
186498.49
221951.02
229947.39
222646.6
277661.55
538533.42
988700.59
1462879.7
1926056
2422249.5
3068289
4062547.5
5718528.3
8543933.1
13421199
22011876
37704662
68060140
1.3199995e+08
2.8498068e+08
7.3147445e+08
2.5483559e+09
1.7205498e+10
2490.5407
3388.0057
4051.2892
7344.8721
23820.45
70980.403
134460.83
186260.37
221737.16
229748.88
222480.9
277643.08
538757.95
988442.17
1462166.1
1924967.6
2420922.3
3066873.8
4061166.4
5717238.5
8542705.9
13419911
22010288
37702341
68056242
1.319926e+08
2.8496493e+08
7.3143389e+08
2.5482123e+09
1.7204592e+10
2491.7552
3388.4108
4050.599
7335.6278
23751.884
70742.812
134196.22
186022.37
221523.44
229550.35
222315.07
277626.77
538993.55
988197.3
1461465.9
1923890
2419602.3
3065462.8
4059788.2
5715952
8541484.5
13418633
22008716
37700046
68052388
1.3198533e+08
2.8494935e+08
7.3139376e+08
2.5480703e+09
1.7203697e+10
2492.992
3388.8448
4049.9285
7326.4254
23683.627
70505.692
133931.29
185784.36
221309.8
229351.87
222149.26
277612.14
539237.11
987961.1
1460773.9
1922818.8
2418286.3
3064053.6
4058410.3
5714665.2
8540262.6
13417355
22007145
37697754
68048541
1.3197807e+08
2.8493381e+08
7.3135376e+08
2.5479287e+09
1.7202804e+10
2494.2515
3389.307
4049.2764
7317.2602
23615.657
70269.007
133666.06
185546.27
221096.21
229153.46
221983.55
277598.86
539486.64
987730.75
1460087.5
1921752.3
2416973.5
3062646.2
4057033.3
5713378.7
8539040.9
13416077
22005573
37695458
68044684
1.3197079e+08
2.8491822e+08
7.3131362e+08
2.5477867e+09
1.7201908e+10
2495.5337
3389.7968
4048.6421
7308.1283
23547.957
70032.742
133400.49
185308.02
220882.63
228955.16
221818.01
277586.73
539740.74
987504.16
1459404.6
1920688.4
2415662.2
3061239.1
4055655.3
5712090.1
8537815.6
13414793
22003992
37693148
68040803
1.3196347e+08
2.8490254e+08
7.3127327e+08
2.547644e+09
1.7201006e+10
2496.8388
3390.3139
4048.0248
7299.0268
23480.514
69796.879
133134.6
185069.6
220669.04
228756.98
221652.68
277575.63
539998.49
987280.09
1458723.9
1919626.5
2414352.3
3059832.7
4054277.2
5710800.4
8536587.9
13413505
22002403
37690824
68036895
1.319561e+08
2.8488674e+08
7.3123262e+08
2.5475003e+09
1.7200097e+10
2498.1666
3390.8583
4047.4243
7289.9535
23413.32
69561.411
132868.39
184830.97
220455.44
228558.92
221487.6
277565.47
540259.24
987057.58
1458044.4
1918565.5
2413042.9
3058426
4052897.9
5709508
8535355.6
13412209
22000802
37688479
68032952
1.3194865e+08
2.8487081e+08
7.3119164e+08
2.5473555e+09
1.719918e+10
2499.5173
3391.4298
4046.8403
7280.9065
23346.368
69326.335
132601.85
184592.1
220241.81
228361.01
221322.81
277556.21
540522.59
986836.19
1457365.9
1917505.5
2411734.5
3057020
4051518.6
5708215
8534121
13410909
21999191
37686115
68028973
1.3194114e+08
2.8485472e+08
7.3115026e+08
2.5472094e+09
1.7198253e+10
2500.8908
3392.0283
4046.2725
7271.8844
23279.652
69091.641
132334.98
184352.99
220028.13
228163.23
221158.32
277547.82
540788.2
986615.37
1456687.6
1916445.9
2410426.2
3055613.7
4050138.3
5706919.3
8532881.6
13409600
21997567
37683730
68024956
1.3193356e+08
2.8483848e+08
7.3110852e+08
2.5470621e+09
1.7197318e+10
2502.2872
3392.654
4045.7207
7262.8861
23213.168
68857.334
132067.78
184113.61
219814.42
227965.61
220994.18
277540.31
541055.86
986394.8
1456009.3
1915386.5
2409118.3
3054207.7
4048757.6
5705622.2
8531639.1
13408285
21995931
37681325
68020902
1.319259e+08
2.8482209e+08
7.3106637e+08
2.5469134e+09
1.7196372e+10
2503.7063
3393.3066
4045.1847
7253.9107
23146.913
68623.406
131800.25
183873.95
219600.65
227768.14
220830.4
277533.65
541325.37
986174.16
1455330.6
1914326.8
2407810.2
3052801.1
4047375.5
5704322.2
8530391.2
13406961
21994281
37678895
68016806
1.3191817e+08
2.8480553e+08
7.3102382e+08
2.5467633e+09
1.7195417e+10
2505.1483
3393.9862
4044.6645
7244.9574
23080.883
68389.86
131532.41
183634.02
219386.82
227570.83
220667.02
277527.88
541596.67
985953.49
1454651.7
1913267.2
2406502.6
3051395
4045993.6
5703021.5
8529141
13405632
21992621
37676445
68012671
1.3191035e+08
2.847888e+08
7.3098083e+08
2.5466118e+09
1.7194451e+10
2506.6131
3394.6927
4044.1599
7236.0256
23015.076
68156.699
131264.23
183393.8
219172.93
227373.69
220504.08
277522.98
541869.59
985732.48
1453972.2
1912207.4
2405194.7
3049988.5
4044610.4
5701717.9
8527885.5
13404294
21990945
37673971
68008493
1.3190246e+08
2.8477191e+08
7.3093744e+08
2.5464589e+09
1.7193475e+10
2508.1006
3395.4261
4043.6708
7227.1149
22949.49
67923.917
130995.72
183153.28
218958.98
227176.71
220341.61
277518.99
542144.03
985511.08
1453292.1
1911147.3
2403887
3048582.1
4043226.9
5700412.9
8526626.7
13402949
21989258
37671475
68004276
1.3189449e+08
2.8475485e+08
7.3089362e+08
2.5463045e+09
1.7192489e+10
2509.6108
3396.1862
4043.197
7218.2247
22884.122
67691.519
130726.9
182912.46
218744.96
226979.91
220179.66
277515.93
542419.91
985289.14
1452611.1
1910086.6
2402578.9
3047175.2
4041842
5699105
8525362.3
13401595
21987556
37668954
68000015
1.3188644e+08
2.8473762e+08
7.3084938e+08
2.5461488e+09
1.7191492e+10
2511.1436
3396.9731
4042.7385
7209.3548
22818.972
67459.506
130457.74
182671.33
218530.88
226783.27
220018.26
277513.82
542697.12
985066.72
1451929.6
1909025.9
2401271.2
3045768.7
4040457.3
5697796.4
8524095.6
13400236
21985843
37666412
67995714
1.3187831e+08
2.8472021e+08
7.3080469e+08
2.5459914e+09
1.7190484e+10
2512.6989
3397.7865
4042.2951
7200.5047
22754.037
67227.876
130188.27
182429.9
218316.72
226586.81
219857.47
277512.67
542975.44
984843.63
1451247.3
1907964.6
2399963.2
3044361.8
4039071.3
5696485
8522823.7
13398867
21984115
37663845
67991370
1.318701e+08
2.8470264e+08
7.3075958e+08
2.5458327e+09
1.7189467e+10
2514.2767
3398.6264
4041.8666
7191.6739
22689.315
66996.635
129918.48
182188.15
218102.49
226390.53
219697.35
277512.5
543254.5
984619.75
1450564.1
1906902.9
2398655.1
3042954.9
4037685
5695172.1
8521548.3
13397492
21982374
37661257
67986985
1.318618e+08
2.8468489e+08
7.3071402e+08
2.5456725e+09
1.7188438e+10
2515.8768
3399.4926
4041.4531
7182.8624
22624.805
66765.778
129648.37
181946.08
217888.18
226194.42
219537.96
277513.3
543533.55
984394.73
1449879.9
1905840.5
2397346.5
3041547.3
4036297
5693855.8
8520266.8
13396107
21980618
37658641
67982554
1.3185343e+08
2.8466696e+08
7.3066803e+08
2.5455108e+09
1.7187399e+10
2517.4992
3400.385
4041.0542
7174.0696
22560.505
66535.313
129377.95
181703.69
217673.8
225998.49
219379.39
277515.11
543811.39
984168.35
1449194.9
1904777.9
2396038.1
3040140
4034909.1
5692538.9
8518983
13394717
21978850
37656004
67978082
1.3184497e+08
2.8464886e+08
7.3062156e+08
2.5453475e+09
1.7186349e+10
2519.1436
3401.3034
4040.67
7165.2953
22496.413
66305.234
129107.21
181460.97
217459.34
225802.74
219221.75
277517.98
544085.47
983939.56
1448508.8
1903714.6
2394729.3
3038732.1
4033519.7
5691218.8
8517693.5
13393317
21977067
37653341
67973565
1.3183642e+08
2.8463057e+08
7.3057467e+08
2.5451827e+09
1.7185288e+10
2520.81
3402.2476
4040.3002
7156.5393
22432.529
66075.547
128836.16
181217.92
217244.79
225607.15
219065.19
277522.14
544350.92
983706.47
1447821.4
1902650.9
2393420.4
3037324.1
4032129.8
5689896.9
8516400.1
13391909
21975270
37650655
67969003
1.3182779e+08
2.846121e+08
7.3052729e+08
2.5450163e+09
1.7184215e+10
2522.4981
3403.2174
4039.9447
7147.8012
22368.85
65846.252
128564.8
180974.54
217030.17
225411.69
218909.05
277527.3
544598.14
983464.89
1447132.1
1901586.3
2392110.9
3035915.2
4030738
5688571.4
8515100.1
13390491
21973456
37647940
67964393
1.3181907e+08
2.8459345e+08
7.3047945e+08
2.5448483e+09
1.7183132e+10
2524.2078
3404.2125
4039.6034
7139.0808
22305.375
65617.347
128293.13
180730.81
216815.47
225216.34
218753.28
277534.85
544808.43
983205.92
1446440.3
1900521.3
2390801.6
3034506.7
4029346.3
5687245.2
8513797.8
13389067
21971631
37645202
67959740
1.3181026e+08
2.8457459e+08
7.3043111e+08
2.5446786e+09
1.7182036e+10
2525.9388
3405.2328
4039.276
7130.3776
22242.101
65388.84
128021.16
180486.75
216600.68
225021.13
218598.12
277548.94
544944.7
982909.36
1445743.3
1899455.2
2389491.9
3033097.5
4027953
5685915.6
8512489.4
13387633
21969789
37642437
67955039
1.3180136e+08
2.8455556e+08
7.3038231e+08
2.5445074e+09
1.7180929e+10
2527.6908
3406.2778
4038.9623
7121.6915
22179.027
65160.718
127748.89
180242.34
216385.8
224826.13
218443.85
277572.48
544977.09
982557.8
1445038.5
1898387.7
2388181.9
3031688.2
4026559.1
5684584.2
8511177
13386191
21967933
37639648
67950292
1.3179237e+08
2.8453633e+08
7.3033301e+08
2.5443345e+09
1.717981e+10
2529.4637
3407.3473
4038.6621
7113.022
22116.152
64932.995
127476.32
179997.57
216170.84
224631.25
218290.72
277607.96
544878.81
982134.01
1444322.5
1897317.8
2386870.9
3030277.7
4025163
5683248.7
8509857.4
13384738
21966058
37636828
67945494
1.3178329e+08
2.845169e+08
7.3028322e+08
2.5441599e+09
1.7178679e+10
2531.2571
3408.4408
4038.3752
7104.3688
22053.473
64705.668
127203.45
179752.46
215955.8
224436.51
218138.91
277656.28
544636.07
981626.94
1443592.9
1896245.6
2385559.8
3028867.6
4023767
5681912.3
8508535.3
13383278
21964172
37633985
67940651
1.3177412e+08
2.8449727e+08
7.3023291e+08
2.5439835e+09
1.7177536e+10
2533.0707
3409.5581
4038.1015
7095.7318
21990.989
64478.73
126930.29
179506.98
215740.67
224241.92
217988.54
277717.57
544243.14
981028.29
1442846.4
1895169.8
2384247.7
3027456.5
4022369
5680572.2
8507206.5
13381808
21962268
37631113
67935756
1.3176485e+08
2.8447744e+08
7.301821e+08
2.5438054e+09
1.7176381e+10
2534.9041
3410.6986
4037.8406
7087.1105
21928.699
64252.197
126656.85
179261.14
215525.45
224047.48
217839.61
277790.11
543711.23
980338.76
1442081.5
1894090.1
2382934.8
3026045.1
4020970.3
5679230
8505873.4
13380330
21960350
37628215
67930814
1.3175548e+08
2.8445741e+08
7.3013077e+08
2.5436256e+09
1.7175213e+10
2536.757
3411.862
4037.5924
7078.5051
21866.602
64026.052
126383.11
179014.94
215310.14
223853.19
217691.98
277870.97
543064.68
979566.31
1441297.4
1893005.7
2381620.3
3024632.4
4019569.2
5677883.3
8504532.4
13378839
21958411
37625284
67925817
1.3174602e+08
2.8443717e+08
7.3007894e+08
2.543444e+09
1.7174032e+10
2538.6288
3413.0477
4037.3567
7069.9152
21804.694
63800.309
126109.11
178768.37
215094.75
223659.03
217545.42
277956.48
542337.43
978725.41
1440495.3
1891917.1
2380305.4
3023220.1
4018168.4
5676536.1
8503189.3
13377343
21956460
37622330
67920774
1.3173646e+08
2.8441671e+08
7.3002655e+08
2.5432606e+09
1.7172839e+10
2540.5192
3414.2551
4037.1332
7061.3406
21742.977
63574.967
125834.81
178521.43
214879.25
223464.97
217399.6
278042.84
541568.55
977834.59
1439676.7
1890824
2378989
3021806.8
4016765.6
5675185
8501839.2
13375835
21954492
37619346
67915679
1.3172681e+08
2.8439606e+08
7.2997366e+08
2.5430754e+09
1.7171634e+10
2542.4276
3415.4839
4036.9217
7052.781
21681.448
63350.021
125560.27
178274.09
214663.65
223270.96
217254.17
278126.71
540796.88
976914.39
1438844.8
1889726.9
2377671.8
3020393.2
4015362.2
5673832
8500485
13374319
21952509
37616335
67910535
1.3171705e+08
2.843752e+08
7.2992024e+08
2.5428884e+09
1.7170415e+10
2544.3536
3416.7332
4036.7217
7044.2364
21620.104
63125.485
125285.44
178026.4
214447.94
223076.96
217108.74
278205.61
540057.14
975984.77
1438002.9
1888626.1
2376353.2
3018978.4
4013956.3
5672474.3
8499122.7
13372790
21950504
37613291
67905334
1.317072e+08
2.8435413e+08
7.2986629e+08
2.5426997e+09
1.7169184e+10
2546.2964
3418.0024
4036.5332
7035.7068
21558.948
62901.346
125010.27
177778.41
214232.13
222882.91
216962.98
278278.01
539377.57
975064.11
1437155.3
1887523.3
2375034.5
3017564
4012550.8
5671116.1
8497758.1
13371255
21948489
37610224
67900086
1.3169725e+08
2.8433283e+08
7.2981177e+08
2.542509e+09
1.7167939e+10
2548.2555
3419.2909
4036.3558
7027.1916
21497.975
62677.617
124734.79
177530.13
214016.2
222688.74
216816.54
278343.22
538778.6
974167.48
1436305.7
1886419.1
2373715.2
3016149
4011143.4
5669754
8496386.4
13369709
21946453
37607125
67894784
1.3168719e+08
2.8431133e+08
7.2975675e+08
2.5423165e+09
1.7166682e+10
2550.2301
3420.5978
4036.189
7018.6911
21437.187
62454.29
124458.99
177281.55
213800.15
222494.41
216669.16
278401.05
538272.98
973306.97
1435457.9
1885314.6
2372396.2
3014734.1
4009735.5
5668389.9
8495010.4
13368154
21944404
37603999
67889432
1.3167704e+08
2.8428962e+08
7.2970115e+08
2.5421222e+09
1.7165412e+10
2552.2196
3421.9224
4036.0327
7010.2051
21376.581
62231.38
124182.86
177032.67
213583.98
222299.85
216520.58
278451.39
537866.37
972491.95
1434614.7
1884210.5
2371077.1
3013318.4
4008325.4
5667021.3
8493626.2
13366586
21942332
37600838
67884021
1.3166678e+08
2.8426768e+08
7.2964503e+08
2.541926e+09
1.7164128e+10
2554.2232
3423.2637
4035.8863
7001.7331
21316.155
62008.884
123906.42
176783.49
213367.68
222105.01
216370.57
278493.49
537558.17
971730.95
1433779.5
1883108.9
2369759.8
3011904.2
4006916.1
5665652.5
8492240.1
13365013
21940249
37597654
67878563
1.3165643e+08
2.8424553e+08
7.2958834e+08
2.5417279e+09
1.7162831e+10
2556.2399
3424.6208
4035.7496
6993.2753
21255.909
61786.799
123629.65
176534
213151.25
221909.84
216218.93
278525
537341.37
971034.01
1432954.5
1882009.8
2368443.6
3010490
4005505.4
5664280
8490847
13363428
21938147
37594438
67873051
1.3164597e+08
2.8422317e+08
7.2953114e+08
2.5415281e+09
1.7161522e+10
2558.269
3425.9928
4035.6219
6984.8314
21195.841
61565.137
123352.56
176284.21
212934.69
221714.31
216065.54
278543.76
537201.86
970409.06
1432142.1
1880914.4
2367129.3
3009076.9
4004094.7
5662906
8489450
13361835
21936030
37591195
67867489
1.3163541e+08
2.8420059e+08
7.2947339e+08
2.5413263e+09
1.71602e+10
2560.3094
3427.3785
4035.5029
6976.4012
21135.951
61343.883
123075.15
176034.11
212717.99
221518.4
215910.47
278555.4
537125.17
969837.58
1431341.6
1879822.7
2365816.7
3007664.2
4002682.6
5661527.9
8488045.2
13360229
21933893
37587920
67861870
1.3162476e+08
2.841778e+08
7.2941511e+08
2.5411229e+09
1.7158865e+10
2562.36
3428.7767
4035.392
6967.9842
21076.235
61123.056
122797.43
175783.7
212501.14
221322.09
215753.79
278561.62
537096.58
969311.78
1430553.1
1878735.5
2364507
3006253.5
4001271.7
5660149.9
8486638.7
13358618
21931744
37584620
67856205
1.31614e+08
2.841548e+08
7.2935629e+08
2.5409176e+09
1.7157517e+10
2564.4198
3430.1863
4035.2886
6959.5804
21016.693
60902.646
122519.37
175532.98
212284.15
221125.39
215595.61
278563.77
537099.27
968822.99
1429774.7
1877652.1
2363199.5
3004843.8
3999860
5658768.7
8485225.6
13356996
21929577
37581290
67850487
1.3160315e+08
2.841316e+08
7.2929697e+08
2.5407105e+09
1.7156157e+10
2566.4876
3431.6059
4035.1922
6951.1893
20957.322
60682.657
122241
175281.94
212067.03
220928.3
215436.07
278562.98
537109.16
968361.75
1429004.9
1876572.5
2361894.6
3003435.8
3998448.8
5657386.3
8483808.7
13355366
21927395
37577934
67844720
1.315922e+08
2.8410819e+08
7.2923711e+08
2.5405017e+09
1.7154784e+10
2568.5622
3433.0342
4035.1021
6942.8106
20898.121
60463.092
121962.31
175030.57
211849.76
220730.85
215275.3
278559.5
537118.91
967921.96
1428241.8
1875495.9
2360591.6
3002028.6
3997036.7
5656000.3
8482384.6
13353723
21925193
37574545
67838897
1.3158115e+08
2.8408457e+08
7.2917674e+08
2.5402912e+09
1.7153399e+10
2570.6421
3434.4697
4035.0176
6934.4444
20839.088
60243.944
121683.27
174778.88
211632.34
220533.06
215113.4
278553.68
537128.91
967498.41
1427483.9
1874422.2
2359291.4
3000623.9
3995626.3
5654614.8
8480959
13352076
21922980
37571134
67833029
1.3157001e+08
2.8406074e+08
7.2911584e+08
2.5400788e+09
1.7152001e+10
2572.7259
3435.9109
4034.9381
6926.09
20780.22
60025.219
121403.92
174526.86
211414.79
220334.96
214950.5
278545.68
537137.59
967086.66
1426729.5
1873350.4
2357993.1
2999220.4
3994215.6
5653226.6
8479527.5
13350418
21920750
37567693
67827111
1.3155877e+08
2.8403672e+08
7.2905447e+08
2.5398649e+09
1.7150591e+10
2574.8123
3437.356
4034.8629
6917.7473
20721.515
59806.908
121124.23
174274.51
211197.09
220136.59
214786.66
278535.43
537143.7
966683.63
1425977.3
1872279.9
2356696.6
2997818.7
3992805.7
5651837.7
8478092.9
13348753
21918506
37564228
67821147
1.3154744e+08
2.8401251e+08
7.289926e+08
2.5396493e+09
1.714917e+10
2576.8994
3438.8035
4034.7912
6909.4156
20662.97
59589.02
120844.2
174021.81
210979.27
219938
214621.97
278522.91
537147.14
966286.74
1425225.9
1871209.9
2355401
2996417.6
3991395.1
5650445.6
8476651.5
13347077
21916243
37560732
67815131
1.3153602e+08
2.8398809e+08
7.2893025e+08
2.5394322e+09
1.7147736e+10
2578.9858
3440.2513
4034.7221
6901.0948
20604.581
59371.545
120563.84
173768.78
210761.31
219739.21
214456.49
278508.02
537147.13
965894.41
1424475
1870140.3
2354107.2
2995018.7
3989986.3
5649054.2
8475208.8
13345396
21913970
37557215
67809071
1.3152451e+08
2.8396349e+08
7.288674e+08
2.5392133e+09
1.7146291e+10
2581.0695
3441.6977
4034.6549
6892.7844
20546.344
59154.483
120283.14
173515.38
210543.21
219540.29
214290.28
278490.66
537143.93
965505.2
1423723.3
1869070.3
2352813.9
2993620.5
3988577.3
5647660.5
8473760.8
13343705
21911681
37553670
67802965
1.3151291e+08
2.839387e+08
7.2880412e+08
2.538993e+09
1.7144835e+10
2583.1486
3443.1405
4034.5887
6884.4841
20488.251
58937.837
120002.08
173261.63
210325
219341.26
214123.38
278470.71
537137.2
965118.23
1422970.7
1867999.5
2351521.3
2992223.7
3987169
5646266.1
8472309.8
13342007
21909378
37550102
67796814
1.3150123e+08
2.8391373e+08
7.2874037e+08
2.5387712e+09
1.7143367e+10
2585.2212
3444.5777
4034.5224
6876.1936
20430.29
58721.597
119720.68
173007.51
210106.65
219142.18
213955.83
278448.11
537127.29
964732.82
1422216.5
1866927.3
2350228.5
2990827
3985760
5644868.8
8470852.5
13340299
21907058
37546504
67790615
1.3148945e+08
2.8388858e+08
7.2867618e+08
2.5385479e+09
1.7141888e+10
2587.2851
3446.007
4034.4553
6867.9127
20372.452
58505.767
119438.92
172753.02
209888.19
218943.08
213787.68
278422.78
537114.22
964348.84
1421461.1
1865854.1
2348936.2
2989431.9
3984352.8
5643472.7
8469394.9
13338587
21904730
37542889
67784377
1.314776e+08
2.8386325e+08
7.2861155e+08
2.5383232e+09
1.7140399e+10
2589.3381
3447.4261
4034.3862
6859.6413
20314.755
58290.342
119156.8
172498.14
209669.6
218744.01
213618.94
278394.68
537098.18
963965.87
1420704
1864779.1
2347643.4
2988037
3982945.2
5642074.4
8467932.2
13336866
21902385
37539247
67778096
1.3146567e+08
2.8383776e+08
7.2854653e+08
2.5380972e+09
1.7138899e+10
2591.3779
3448.8325
4034.3142
6851.3791
20257.192
58075.321
118874.32
172242.87
209450.9
218545
213449.66
278363.79
537079.35
963583.91
1419945.3
1863702.5
2346350.4
2986642.8
3981538.3
5640675.7
8466467.2
13335140
21900030
37535585
67771776
1.3145366e+08
2.8381211e+08
7.2848108e+08
2.5378699e+09
1.7137389e+10
2593.402
3450.2236
4034.2381
6843.1258
20199.756
57860.702
118591.48
171987.2
209232.08
218346.09
213279.86
278330.12
537057.96
963202.87
1419184.9
1862623.7
2345056.1
2985248.1
3980130.4
5639274.4
8464996.5
13333403
21897659
37531896
67765411
1.3144157e+08
2.8378629e+08
7.2841526e+08
2.5376414e+09
1.7135869e+10
2595.4078
3451.5967
4034.1567
6834.8816
20142.44
57646.484
118308.26
171731.12
209013.13
218147.3
213109.59
278293.71
537034.29
962822.99
1418423.4
1861543.5
2343761.7
2983854.5
3978724
5637874.2
8463525.8
13331664
21895280
37528192
67759012
1.3142941e+08
2.8376032e+08
7.2834905e+08
2.5374115e+09
1.7134339e+10
2597.3925
3452.9489
4034.069
6826.6462
20085.24
57432.665
118024.67
171474.62
208794.07
217948.67
212938.87
278254.63
537008.52
962444.26
1417660.6
1860461.3
2342466.1
2982460.3
3977317
5636471.9
8462050.4
13329917
21892887
37524464
67752574
1.3141718e+08
2.8373421e+08
7.2828249e+08
2.5371807e+09
1.71328e+10
2599.3535
3454.2774
4033.9736
6818.4197
20028.165
57219.243
117740.71
171217.69
208574.89
217750.21
212767.74
278212.95
536980.89
962066.81
1416896.9
1859377.3
2341169.7
2981066.4
3975910.5
5635069.6
8460573.3
13328165
21890485
37520718
67746103
1.3140488e+08
2.8370795e+08
7.2821558e+08
2.5369486e+09
1.7131252e+10
2601.2875
3455.5789
4033.8693
6810.2024
19971.209
57006.222
117456.36
170960.33
208355.58
217551.95
212596.22
278168.77
536951.57
961690.66
1416132.2
1858291.3
2339871.6
2979671.4
3974502.5
5633664.3
8459090.6
13326404
21888067
37516947
67739590
1.3139251e+08
2.8368154e+08
7.2814833e+08
2.5367156e+09
1.7129694e+10
2603.1917
3456.8503
4033.7548
6801.9947
19914.368
56793.6
117171.63
170702.53
208136.15
217353.91
212424.36
278122.2
536920.82
961316.17
1415367.3
1857204.2
2338573.1
2978277.1
3973095.9
5632260.4
8457608.6
13324641
21885644
37513163
67733048
1.3138008e+08
2.83655e+08
7.2808072e+08
2.5364813e+09
1.7128127e+10
2605.0626
3458.0882
4033.6289
6793.797
19857.641
56581.376
116886.53
170444.28
207916.6
217156.09
212252.17
278073.37
536888.79
960943.28
1414602
1856115.5
2337273.3
2976882
3971688.5
5630854.5
8456122.2
13322870
21883208
37509358
67726470
1.3136758e+08
2.8362833e+08
7.2801283e+08
2.5362463e+09
1.7126553e+10
2606.8969
3459.2891
4033.4901
6785.6098
19801.031
56369.556
116601.03
170185.57
207696.93
216958.51
212079.68
278022.38
536855.61
960572.1
1413836.7
1855025.6
2335972.6
2975486.7
3970281.4
5629448.6
8454634.8
13321096
21880765
37505539
67719865
1.3135503e+08
2.8360154e+08
7.2794462e+08
2.5360102e+09
1.712497e+10
2608.6911
3460.4494
4033.3372
6777.4338
19744.537
56158.14
116315.15
169926.41
207477.13
216761.18
211906.93
277969.35
536821.38
960202.53
1413071.2
1853934.1
2334670.2
2974090
3968872.5
5628039.7
8453141.8
13319313
21878307
37501696
67713221
1.3134241e+08
2.8357461e+08
7.2787611e+08
2.5357732e+09
1.7123379e+10
2610.4416
3461.5653
4033.1686
6769.2699
19688.158
55947.13
116028.89
169666.77
207257.2
216564.1
211733.93
277914.42
536786.31
959834.9
1412306.2
1852842.1
2333367.5
2972693.8
3967464.8
5626632.2
8451649.8
13317529
21875845
37497842
67706553
1.3132973e+08
2.8354757e+08
7.278073e+08
2.5355352e+09
1.7121781e+10
2612.1443
3462.633
4032.983
6761.1186
19631.896
55736.53
115742.24
169406.67
207037.15
216367.27
211560.71
277857.71
536750.44
959469.04
1411541.6
1851749
2332063.4
2971296.4
3966055.7
5625222.3
8450153.5
13315738
21873371
37493969
67699852
1.31317e+08
2.8352042e+08
7.2773823e+08
2.5352964e+09
1.7120175e+10
2613.7956
3463.6483
4032.7788
6752.9812
19575.754
55526.345
115455.21
169146.08
206816.96
216170.7
211387.29
277799.32
536713.88
959105.02
1410777.6
1850655.5
2330758.7
2969898.8
3964646.7
5623812.3
8448656.1
13313944
21870891
37490084
67693126
1.3130422e+08
2.8349314e+08
7.2766886e+08
2.5350567e+09
1.7118561e+10
2615.3911
3464.6073
4032.5546
6744.8586
19519.731
55316.578
115167.79
168885.01
206596.65
215974.38
211213.69
277739.37
536676.68
958742.74
1410014.2
1849561
2329452.6
2968499.8
3963235.9
5622399.2
8447153.4
13312141
21868396
37486176
67686366
1.3129138e+08
2.8346576e+08
7.2759923e+08
2.5348162e+09
1.7116941e+10
2616.9267
3465.5055
4032.3089
6736.7522
19463.829
55107.233
114879.99
168623.45
206376.2
215778.31
211039.93
277677.97
536638.98
958382.42
1409251.9
1848466.7
2328146.6
2967101.3
3961826.3
5620987.8
8445652.3
13310339
21865900
37482261
67679586
1.3127849e+08
2.8343827e+08
7.2752932e+08
2.5345747e+09
1.7115313e+10
2618.398
3466.3386
4032.0401
6728.6632
19408.053
54898.317
114591.8
168361.39
206155.62
215582.5
210866.02
277615.21
536600.79
958023.86
1408490.4
1847372.1
2326839.7
2965701.7
3960415.3
5619574.1
8444147.1
13308530
21863393
37478329
67672777
1.3126555e+08
2.8341068e+08
7.2745918e+08
2.5343325e+09
1.711368e+10
2619.8005
3467.102
4031.7466
6720.5932
19352.403
54689.834
114303.24
168098.83
205934.91
215386.94
210691.98
277551.17
536562.15
957667.04
1407730
1846277.5
2325532.5
2964302
3959004.4
5618160.3
8442641.2
13306718
21860881
37474385
67665947
1.3125257e+08
2.8338299e+08
7.2738878e+08
2.5340895e+09
1.7112039e+10
2621.1296
3467.7912
4031.4269
6712.5437
19296.883
54481.789
114014.3
167835.78
205714.06
215191.62
210517.83
277485.95
536523.08
957311.84
1406970.5
1845182.7
2324224.4
2962901.1
3957591.7
5616743.6
8441130.2
13304899
21858356
37470423
67659085
1.3123953e+08
2.8335519e+08
7.2731815e+08
2.5338457e+09
1.7110393e+10
2622.3805
3468.4014
4031.0794
6704.5163
19241.495
54274.19
113724.97
167572.22
205493.08
214996.55
210343.56
277419.62
536483.67
956958.4
1406212.4
1844088.5
2322916.7
2961500.9
3956180.3
5615328.5
8439620.9
13303080
21855829
37466453
67652206
1.3122645e+08
2.833273e+08
7.2724724e+08
2.5336009e+09
1.710874e+10
2623.5482
3468.9278
4030.7024
6696.5127
19186.243
54067.042
113435.28
167308.12
205271.95
214801.71
210169.21
277352.25
536443.87
956606.5
1405455.3
1842994.4
2321608.5
2960099.9
3954767.5
5613911.1
8438107.8
13301255
21853293
37462468
67645301
1.3121333e+08
2.8329932e+08
7.2717613e+08
2.5333555e+09
1.7107082e+10
2624.6279
3469.3655
4030.2943
6688.5344
19131.13
53860.352
113145.21
167043.5
205050.68
214607.1
209994.77
277283.9
536403.74
956256.13
1404699.4
1841900.7
2320300.6
2958699.1
3953355
5612493.9
8436594.1
13299428
21850752
37458474
67638377
1.3120017e+08
2.8327124e+08
7.2710476e+08
2.5331092e+09
1.7105418e+10
2625.6144
3469.7094
4029.8534
6680.5835
19076.159
53654.125
112854.77
166778.41
204829.27
214412.72
209820.26
277214.62
536363.22
955907.1
1403944.4
1840807.2
2318992
2957297.3
3951940.9
5611073.8
8435075.7
13297594
21848199
37454461
67631424
1.3118695e+08
2.8324306e+08
7.2703316e+08
2.5328621e+09
1.7103749e+10
2626.5025
3469.9543
4029.3782
6672.6616
19021.333
53448.369
112563.96
166512.74
204607.7
214218.56
209645.68
277144.48
536322.41
955559.59
1403190.9
1839714.6
2317684.2
2955896.4
3950528.1
5609655.6
8433559.1
13295761
21845646
37450443
67624456
1.311737e+08
2.832148e+08
7.2696131e+08
2.5326141e+09
1.7102074e+10
2627.2869
3470.0953
4028.8668
6664.7707
18966.655
53243.091
112272.79
166246.48
204385.97
214024.62
209471.04
277073.53
536281.26
955213.37
1402438.5
1838622.5
2316376.4
2954495.2
3949114.5
5608235.4
8432039.1
13293922
21843084
37446411
67617463
1.3116041e+08
2.8318645e+08
7.2688927e+08
2.5323655e+09
1.7100394e+10
2627.9623
3470.1269
4028.3178
6656.9128
18912.13
53038.298
111981.25
165979.83
204164.11
213830.88
209296.34
277001.79
536239.74
954868.37
1401687.3
1837531
2315069
2953094.3
3947701.2
5606815.5
8430518.8
13292081
21840517
37442370
67610454
1.3114708e+08
2.8315801e+08
7.2681698e+08
2.5321159e+09
1.709871e+10
2628.5231
3470.0441
4027.7295
6649.0901
18857.76
52833.997
111689.34
165712.58
203942.08
213637.34
209121.6
276929.31
536197.83
954524.4
1400936.9
1836439.8
2313761.2
2951692.5
3946286.4
5605392.9
8428994
13290234
21837940
37438312
67603417
1.311337e+08
2.8312948e+08
7.2674446e+08
2.5318656e+09
1.709702e+10
2628.964
3469.8414
4027.1004
6641.3046
18803.549
52630.195
111397.12
165444.55
203719.82
213444