/*--------------------------------*- C++ -*----------------------------------*\
| =========                 |                                                 |
| \\      /  F ield         | OpenFOAM: The Open Source CFD Toolbox           |
|  \\    /   O peration     | Version:  v2012                                 |
|   \\  /    A nd           | Website:  www.openfoam.com                      |
|    \\/     M anipulation  |                                                 |
\*---------------------------------------------------------------------------*/
FoamFile
{
    version     2.0;
    format      ascii;
    class       surfaceScalarField;
    location    "400";
    object      phi;
}
// * * * * * * * * * * * * * * * * * * * * * * * * * * * * * * * * * * * * * //

dimensions      [1 0 -1 0 0 0 0];
oriented        oriented;


internalField   nonuniform List<scalar> 
47170
(
-6.0590719e-09
-4.075731e-05
-9.7470544e-09
-3.3826323e-05
-9.5915596e-09
-2.7399611e-05
-8.0326552e-09
-2.162959e-05
-1.024493e-08
-1.6127774e-05
-1.4167061e-08
-1.0611879e-05
-1.2570751e-08
-6.5207393e-06
-9.9944043e-09
-4.1608794e-06
-7.89831e-09
-2.7745054e-06
-6.3879622e-09
-1.9120679e-06
-5.0899016e-09
-1.3522071e-06
-3.9828508e-09
-9.5503266e-07
-3.1558102e-09
-6.567659e-07
-2.5167988e-09
-4.4790746e-07
-2.0059813e-09
-3.0563598e-07
-1.5880988e-09
-2.0824691e-07
-1.248485e-09
-1.4155908e-07
-9.7162304e-10
-9.5904301e-08
-7.4576988e-10
-6.4695923e-08
-5.5997694e-10
-4.3423356e-08
-4.0875913e-10
-2.8966663e-08
-2.8778226e-10
-1.9168669e-08
-1.9427981e-10
-1.2548926e-08
-1.2455144e-10
-8.0948687e-09
-7.4903553e-11
-5.1145151e-09
-4.1275704e-11
-3.1349906e-09
-1.9945079e-11
-1.8332155e-09
-7.6312168e-12
-9.8861046e-10
-1.6557273e-12
-4.5077322e-10
-1.1733146e-10
-6.9705584e-09
-4.0750339e-05
-1.254232e-08
-3.3820752e-05
-1.597384e-08
-2.7396179e-05
-1.7790564e-08
-2.1627774e-05
-1.6238285e-08
-1.6129326e-05
-9.4103279e-09
-1.0618707e-05
-4.1690926e-09
-6.5259811e-06
-2.0274431e-09
-4.1630211e-06
-1.236861e-09
-2.7752966e-06
-1.0240521e-09
-1.9122805e-06
-1.0040394e-09
-1.3522277e-06
-9.7886122e-10
-9.5505762e-07
-9.1607979e-10
-6.5682912e-07
-8.4894233e-10
-4.4797432e-07
-7.7807803e-10
-3.0570714e-07
-6.9725443e-10
-2.0832743e-07
-6.0643602e-10
-1.4165007e-07
-5.0763738e-10
-9.600282e-08
-4.0812088e-10
-6.4795519e-08
-3.143373e-10
-4.3516924e-08
-2.3213566e-10
-2.9048888e-08
-1.6388669e-10
-1.9236768e-08
-1.1041049e-10
-1.2602397e-08
-7.0375564e-11
-8.1348087e-09
-4.1979629e-11
-5.142891e-09
-2.2846625e-11
-3.1540702e-09
-1.0851967e-11
-1.8451933e-09
-4.0323883e-12
-9.9540715e-10
-8.3064359e-13
-4.5395873e-10
-1.181621e-10
-7.5320222e-09
-4.0742807e-05
-1.3819866e-08
-3.3814464e-05
-1.7880085e-08
-2.7392119e-05
-1.9385903e-08
-2.1626268e-05
-1.5810886e-08
-1.6132901e-05
-7.3557186e-09
-1.0627163e-05
-1.8963401e-09
-6.5314408e-06
-8.8680672e-12
-4.1649084e-06
4.8869385e-10
-2.7757946e-06
4.7175008e-10
-1.9122634e-06
2.8473159e-10
-1.352041e-06
1.1849958e-10
-9.5489115e-07
5.3353967e-11
-6.5676429e-07
4.880932e-11
-4.4796953e-07
6.9942797e-11
-3.0572855e-07
9.699381e-11
-2.0835424e-07
1.1577586e-10
-1.4166907e-07
1.2206137e-10
-9.6008902e-08
1.1588456e-10
-6.4789476e-08
1.0122306e-10
-4.3502109e-08
8.1898156e-11
-2.9029634e-08
6.2080546e-11
-1.9216853e-08
4.4026241e-11
-1.2584374e-08
2.9253887e-11
-8.1199819e-09
1.7972347e-11
-5.1316141e-09
1.002662e-11
-3.1461039e-09
4.8459854e-12
-1.8400065e-09
1.829523e-12
-9.9238201e-10
3.8638481e-13
-4.5250943e-10
-1.1777572e-10
-8.0153348e-09
-4.0734792e-05
-1.4784361e-08
-3.3807695e-05
-1.9091584e-08
-2.7387812e-05
-2.0227372e-08
-2.1625132e-05
-1.5616297e-08
-1.6137513e-05
-6.3526069e-09
-1.0636426e-05
-6.6329184e-10
-6.5371303e-06
1.2060779e-09
-4.1667777e-06
1.5875118e-09
-2.7761762e-06
1.3858816e-09
-1.9120616e-06
1.0059105e-09
-1.3516613e-06
6.3786358e-10
-9.5452289e-07
3.7669037e-10
-6.5650338e-07
2.0928944e-10
-4.478019e-07
1.0099049e-10
-3.056205e-07
3.303926e-11
-2.0828607e-07
-7.7690429e-12
-1.4162845e-07
-2.9014115e-11
-9.5987453e-08
-3.7424171e-11
-6.4781185e-08
-3.7072525e-11
-4.3502304e-08
-3.2234878e-11
-2.9034532e-08
-2.5333205e-11
-1.9223648e-08
-1.848086e-11
-1.2591252e-08
-1.244717e-11
-8.1259588e-09
-7.7636912e-12
-5.1363012e-09
-4.3609158e-12
-3.1494779e-09
-2.134054e-12
-1.8422315e-09
-8.1335955e-13
-9.9369282e-10
-1.7175746e-13
-4.5314402e-10
-1.1794747e-10
-8.3456423e-09
-4.0726446e-05
-1.5344964e-08
-3.3800695e-05
-1.9640792e-08
-2.7383516e-05
-2.04331e-08
-2.162434e-05
-1.5336216e-08
-1.614261e-05
-5.822643e-09
-1.064594e-05
-7.6431156e-11
-6.5428767e-06
1.8466275e-09
-4.1687006e-06
2.1990673e-09
-2.7765289e-06
1.9104022e-09
-1.9117727e-06
1.4511829e-09
-1.3512023e-06
1.006866e-09
-9.5407839e-07
6.7081283e-10
-6.5616757e-07
4.4674484e-10
-4.4757766e-07
2.9737225e-10
-3.0547136e-07
1.9960301e-10
-2.0818815e-07
1.3570692e-10
-1.4156475e-07
9.386732e-11
-9.59455e-08
6.5060913e-11
-6.4752522e-08
4.5028216e-11
-4.3482188e-08
3.0600139e-11
-2.9020187e-08
2.0398077e-11
-1.9213396e-08
1.3105048e-11
-1.2583996e-08
8.1022901e-12
-8.120924e-09
4.7031213e-12
-5.1329074e-09
2.5215936e-12
-3.1472794e-09
1.1821134e-12
-1.8408859e-09
4.3885354e-13
-9.9294038e-10
9.3268218e-14
-4.5279192e-10
-1.1785421e-10
-8.5639782e-09
-4.0717882e-05
-1.5673593e-08
-3.3793586e-05
-1.9906436e-08
-2.7379284e-05
-2.04763e-08
-2.162377e-05
-1.516314e-08
-1.6147923e-05
-5.5478331e-09
-1.0655555e-05
2.3340183e-10
-6.5486581e-06
2.2249258e-09
-4.170692e-06
2.5482645e-09
-2.7768524e-06
2.2067582e-09
-1.9114311e-06
1.6984993e-09
-1.3506942e-06
1.2057442e-09
-9.5358547e-07
8.1843336e-10
-6.5578047e-07
5.5074363e-10
-4.4730981e-07
3.667115e-10
-3.0528753e-07
2.4202556e-10
-2.0806332e-07
1.578421e-10
-1.4148074e-07
1.0188384e-10
-9.5889413e-08
6.4723684e-11
-6.4715476e-08
4.065715e-11
-4.3458024e-08
2.503037e-11
-2.900462e-08
1.5192649e-11
-1.9203487e-08
8.9408771e-12
-1.2577768e-08
5.124857e-12
-8.1170667e-09
2.7777365e-12
-5.1305626e-09
1.4123291e-12
-3.1458919e-09
6.2977568e-13
-1.8400989e-09
2.2577975e-13
-9.9252656e-10
4.755178e-14
-4.5260672e-10
-1.1780665e-10
-8.7010959e-09
-4.070918e-05
-1.5857147e-08
-3.3786429e-05
-2.0026225e-08
-2.7375115e-05
-2.046263e-08
-2.1623334e-05
-1.5056708e-08
-1.6153329e-05
-5.3985265e-09
-1.0665213e-05
4.095734e-10
-6.5544663e-06
2.4489986e-09
-4.1727313e-06
2.7543561e-09
-2.7771579e-06
2.3825902e-09
-1.9110592e-06
1.84713e-09
-1.350159e-06
1.3274616e-09
-9.5306566e-07
9.1187812e-10
-6.5536507e-07
6.2063837e-10
-4.4701842e-07
4.184348e-10
-3.0508551e-07
2.8006767e-10
-2.0792481e-07
1.8581009e-10
-1.4138663e-07
1.2241105e-10
-9.5825901e-08
7.9750651e-11
-6.4672913e-08
5.1511429e-11
-4.34297e-08
3.2723464e-11
-2.8985888e-08
2.0473208e-11
-1.9191187e-08
1.2443386e-11
-1.2569767e-08
7.3353813e-12
-8.1119319e-09
4.094632e-12
-5.1273312e-09
2.1269234e-12
-3.1439168e-09
9.7467023e-13
-1.8389461e-09
3.5557023e-13
-9.9190535e-10
7.3790302e-14
-4.5232344e-10
-1.1773286e-10
-8.785154e-09
-4.0700395e-05
-1.5957939e-08
-3.3779257e-05
-2.0078896e-08
-2.7370994e-05
-2.0440803e-08
-2.1622972e-05
-1.4999842e-08
-1.615877e-05
-5.322248e-09
-1.0674891e-05
5.1311181e-10
-6.5603018e-06
2.5823964e-09
-4.1748005e-06
2.8769904e-09
-2.7774527e-06
2.4873019e-09
-1.9106694e-06
1.9354397e-09
-1.3496073e-06
1.3993204e-09
-9.525294e-07
9.6653421e-10
-6.5493246e-07
6.6080566e-10
-4.4671256e-07
4.4725903e-10
-3.0487212e-07
3.0022931e-10
-2.0777765e-07
1.9957064e-10
-1.4128609e-07
1.3154943e-10
-9.5757752e-08
8.5663604e-11
-6.4627103e-08
5.5230879e-11
-4.3399172e-08
3.5008538e-11
-2.8965704e-08
2.1840392e-11
-1.9177955e-08
1.3240026e-11
-1.2561184e-08
7.7816835e-12
-8.1064423e-09
4.3339329e-12
-5.1238888e-09
2.2522023e-12
-3.14182e-09
1.0283096e-12
-1.837726e-09
3.7467258e-13
-9.9124953e-10
7.7685721e-14
-4.520249e-10
-1.1765518e-10
-8.8358602e-09
-4.0691559e-05
-1.6012642e-08
-3.377208e-05
-2.0101276e-08
-2.7366905e-05
-2.0424554e-08
-2.1622649e-05
-1.4976022e-08
-1.6164219e-05
-5.2876525e-09
-1.0684579e-05
5.729245e-10
-6.5661625e-06
2.6628557e-09
-4.1768904e-06
2.9518346e-09
-2.7777418e-06
2.5516064e-09
-1.910269e-06
1.9897689e-09
-1.3490456e-06
1.4436257e-09
-9.5198315e-07
1.0005425e-09
-6.5448954e-07
6.861711e-10
-4.4639808e-07
4.6587148e-10
-3.0465199e-07
3.1363749e-10
-2.0762533e-07
2.0910438e-10
-1.4118171e-07
1.3819124e-10
-9.5686781e-08
9.0234549e-11
-6.4579256e-08
5.8302028e-11
-4.3367196e-08
3.7036711e-11
-2.8944505e-08
2.3130953e-11
-1.9164022e-08
1.4041351e-11
-1.2552125e-08
8.2532629e-12
-8.1006351e-09
4.5991114e-12
-5.1202402e-09
2.3841549e-12
-3.1395938e-09
1.0896587e-12
-1.8364287e-09
3.9704399e-13
-9.9055141e-10
8.2850503e-14
-4.517068e-10
-1.1757233e-10
-8.8665956e-09
-4.0682692e-05
-1.6042814e-08
-3.3764903e-05
-2.0111765e-08
-2.7362836e-05
-2.0417078e-08
-2.1622343e-05
-1.4974849e-08
-1.6169661e-05
-5.2800276e-09
-1.0694274e-05
6.0574059e-10
-6.5720483e-06
2.7119801e-09
-4.1789965e-06
2.9985473e-09
-2.7780285e-06
2.5918604e-09
-1.9098622e-06
2.0236381e-09
-1.3484775e-06
1.4710312e-09
-9.5143044e-07
1.0214441e-09
-6.5404011e-07
7.0166199e-10
-4.460782e-07
4.7711279e-10
-3.0442759e-07
3.216058e-10
-2.0746973e-07
2.1463353e-10
-1.4107486e-07
1.4194617e-10
-9.5614013e-08
9.2730294e-11
-6.4530128e-08
5.9924732e-11
-4.3334327e-08
3.8070896e-11
-2.8922697e-08
2.3778355e-11
-1.9149681e-08
1.4432468e-11
-1.2542797e-08
8.4819227e-12
-8.0946551e-09
4.7237451e-12
-5.1164827e-09
2.4472086e-12
-3.1373013e-09
1.1167896e-12
-1.8350927e-09
4.0667669e-13
-9.8983246e-10
8.5339341e-14
-4.5137919e-10
-1.1748699e-10
-8.8857857e-09
-4.0673807e-05
-1.6060677e-08
-3.3757729e-05
-2.0118817e-08
-2.7358778e-05
-2.0418367e-08
-2.1622044e-05
-1.4989097e-08
-1.617509e-05
-5.2891371e-09
-1.0703974e-05
6.2122918e-10
-6.5779588e-06
2.7417861e-09
-4.181117e-06
3.0282614e-09
-2.7783151e-06
2.6177487e-09
-1.9094516e-06
2.0453408e-09
-1.3479052e-06
1.4884479e-09
-9.5087344e-07
1.0347135e-09
-6.5358651e-07
7.1153911e-10
-4.4575493e-07
4.8434857e-10
-3.0420054e-07
3.2680179e-10
-2.0731209e-07
2.1830998e-10
-1.4096649e-07
1.4449222e-10
-9.5540118e-08
9.4477287e-11
-6.4480191e-08
6.1097869e-11
-4.3300889e-08
3.8853015e-11
-2.8900496e-08
2.4282711e-11
-1.9135075e-08
1.4756918e-11
-1.2533292e-08
8.6819206e-12
-8.0885601e-09
4.8448926e-12
-5.1126522e-09
2.5140781e-12
-3.1349637e-09
1.1516656e-12
-1.8337303e-09
4.2007011e-13
-9.8909919e-10
8.7070831e-14
-4.51045e-10
-1.1739992e-10
-8.898689e-09
-4.0664908e-05
-1.6072904e-08
-3.3750554e-05
-2.0126216e-08
-2.7354725e-05
-2.0427207e-08
-2.1621743e-05
-1.5014038e-08
-1.6180503e-05
-5.3088821e-09
-1.0713679e-05
6.2524746e-10
-6.583893e-06
2.7595584e-09
-4.1832512e-06
3.0473369e-09
-2.778603e-06
2.6347002e-09
-1.9090389e-06
2.0594675e-09
-1.3473301e-06
1.4996171e-09
-9.503135e-07
1.0431374e-09
-6.5313016e-07
7.1777016e-10
-4.4542946e-07
4.8887927e-10
-3.0397177e-07
3.3001499e-10
-2.0715313e-07
2.2054273e-10
-1.4085711e-07
1.4600881e-10
-9.5465491e-08
9.5486904e-11
-6.4429728e-08
6.1753206e-11
-4.3267083e-08
3.9271263e-11
-2.8878043e-08
2.4543194e-11
-1.9120298e-08
1.4914636e-11
-1.2523676e-08
8.7719264e-12
-8.0823925e-09
4.8935172e-12
-5.1087758e-09
2.5399826e-12
-3.1325981e-09
1.1616188e-12
-1.8323515e-09
4.2352382e-13
-9.8835708e-10
8.81347e-14
-4.5070677e-10
-1.1731178e-10
-8.9083517e-09
-4.0655999e-05
-1.6083097e-08
-3.374338e-05
-2.0135391e-08
-2.7350673e-05
-2.0441858e-08
-2.1621437e-05
-1.5046543e-08
-1.6185899e-05
-5.3367201e-09
-1.0723389e-05
6.2209006e-10
-6.5898518e-06
2.7698083e-09
-4.1853989e-06
3.0598761e-09
-2.7788931e-06
2.6461006e-09
-1.9086251e-06
2.0689603e-09
-1.3467531e-06
1.5070128e-09
-9.4975148e-07
1.0487271e-09
-6.52672e-07
7.2196127e-10
-4.4510263e-07
4.9201504e-10
-3.0374195e-07
3.3230569e-10
-2.0699336e-07
2.2220314e-10
-1.4074713e-07
1.4716907e-10
-9.5390412e-08
9.6293333e-11
-6.437894e-08
6.2291819e-11
-4.3233048e-08
3.962584e-11
-2.8855431e-08
2.4763861e-11
-1.9105414e-08
1.5050083e-11
-1.2513988e-08
8.8506918e-12
-8.0761786e-09
4.9382996e-12
-5.10487e-09
2.5624191e-12
-3.1302144e-09
1.1731321e-12
-1.8309622e-09
4.2787029e-13
-9.8760922e-10
8.8833177e-14
-4.5036589e-10
-1.1722295e-10
-8.9165906e-09
-4.0647083e-05
-1.6093069e-08
-3.3736203e-05
-2.014691e-08
-2.7346619e-05
-2.0461134e-08
-2.1621122e-05
-1.5084412e-08
-1.6191276e-05
-5.3690781e-09
-1.0733104e-05
6.1356081e-10
-6.5958345e-06
2.7748188e-09
-4.1875601e-06
3.0679661e-09
-2.7791864e-06
2.6537848e-09
-1.9082108e-06
2.0752752e-09
-1.3461747e-06
1.5117405e-09
-9.4918787e-07
1.0521803e-09
-6.5221256e-07
7.2448655e-10
-4.4477486e-07
4.9384662e-10
-3.0351143e-07
3.3359295e-10
-2.0683304e-07
2.2308608e-10
-1.4063672e-07
1.477547e-10
-9.531502e-08
9.6672088e-11
-6.4327926e-08
6.2526807e-11
-4.3198853e-08
3.9770422e-11
-2.8832711e-08
2.4850175e-11
-1.9090458e-08
1.5099656e-11
-1.2504252e-08
8.8761972e-12
-8.069934e-09
4.9496156e-12
-5.100945e-09
2.5653294e-12
-3.127819e-09
1.1727582e-12
-1.829566e-09
4.2743003e-13
-9.8685772e-10
8.9267751e-14
-4.5002334e-10
-1.1713368e-10
-8.9243131e-09
-4.0638158e-05
-1.6103636e-08
-3.3729024e-05
-2.0160784e-08
-2.7342562e-05
-2.0483916e-08
-2.1620799e-05
-1.5126137e-08
-1.6196633e-05
-5.4054154e-09
-1.0742825e-05
6.0179136e-10
-6.6018418e-06
2.7766819e-09
-4.189735e-06
3.0732437e-09
-2.779483e-06
2.6591751e-09
-1.9077967e-06
2.079654e-09
-1.3455953e-06
1.5148768e-09
-9.4862303e-07
1.0544342e-09
-6.5175222e-07
7.2615524e-10
-4.4444652e-07
4.9510628e-10
-3.0328048e-07
3.3452321e-10
-2.0667239e-07
2.2377733e-10
-1.4052606e-07
1.4824858e-10
-9.5239437e-08
9.7033664e-11
-6.427677e-08
6.2778885e-11
-4.3164558e-08
3.9952667e-11
-2.880992e-08
2.4972548e-11
-1.9075453e-08
1.5186888e-11
-1.2494485e-08
8.9345976e-12
-8.063669e-09
4.9897297e-12
-5.0970072e-09
2.5902142e-12
-3.1254159e-09
1.1876861e-12
-1.8281653e-09
4.3344535e-13
-9.8610379e-10
8.9564221e-14
-4.4967968e-10
-1.1704412e-10
-8.9320252e-09
-4.0629226e-05
-1.6114966e-08
-3.3721841e-05
-2.0176591e-08
-2.73385e-05
-2.0509507e-08
-2.1620466e-05
-1.5170818e-08
-1.6201972e-05
-5.4445953e-09
-1.0752551e-05
5.8783767e-10
-6.6078743e-06
2.7762511e-09
-4.1919233e-06
3.0766474e-09
-2.7797835e-06
2.6629257e-09
-1.9073829e-06
2.0826342e-09
-1.3450151e-06
1.5168265e-09
-9.4805716e-07
1.0557395e-09
-6.5129123e-07
7.2708084e-10
-4.4411779e-07
4.9577823e-10
-3.0304927e-07
3.3499261e-10
-2.0651154e-07
2.2409976e-10
-1.4041524e-07
1.4845914e-10
-9.5163731e-08
9.7169915e-11
-6.4225525e-08
6.2860428e-11
-4.3130198e-08
4.0003408e-11
-2.8787084e-08
2.5000604e-11
-1.9060418e-08
1.5204163e-11
-1.2484698e-08
8.94121e-12
-8.057391e-09
4.9927429e-12
-5.0930612e-09
2.5913043e-12
-3.1230078e-09
1.1868104e-12
-1.8267617e-09
4.3296413e-13
-9.8534828e-10
8.9756605e-14
-4.4933529e-10
-1.1695436e-10
-8.9399126e-09
-4.0620286e-05
-1.6127015e-08
-3.3714654e-05
-2.0193942e-08
-2.7334433e-05
-2.053729e-08
-2.1620123e-05
-1.5217534e-08
-1.6207292e-05
-5.4851108e-09
-1.0762283e-05
5.7147857e-10
-6.6139309e-06
2.7739464e-09
-4.1941258e-06
3.0785314e-09
-2.7800881e-06
2.6655121e-09
-1.9069698e-06
2.0846985e-09
-1.3444343e-06
1.5180669e-09
-9.4749049e-07
1.0565757e-09
-6.5082983e-07
7.2772858e-10
-4.4378891e-07
4.9633311e-10
-3.0281798e-07
3.3544526e-10
-2.0635062e-07
2.2447424e-10
-1.4030436e-07
1.4874503e-10
-9.5087981e-08
9.7387246e-11
-6.4174244e-08
6.3016834e-11
-4.3095811e-08
4.0109952e-11
-2.8764228e-08
2.5072102e-11
-1.9045369e-08
1.5247984e-11
-1.24749e-08
8.9707863e-12
-8.051106e-09
5.0104263e-12
-5.0891106e-09
2.6029994e-12
-3.1205967e-09
1.1935305e-12
-1.8253564e-09
4.3568605e-13
-9.8459182e-10
8.9875189e-14
-4.4899046e-10
-1.1686448e-10
-8.9481054e-09
-4.0611338e-05
-1.6139696e-08
-3.3707462e-05
-2.0212771e-08
-2.733036e-05
-2.056665e-08
-2.1619769e-05
-1.5265854e-08
-1.6212593e-05
-5.5277296e-09
-1.0772021e-05
5.5414827e-10
-6.6200129e-06
2.770637e-09
-4.1963422e-06
3.0794902e-09
-2.780397e-06
2.6672499e-09
-1.9065576e-06
2.0859611e-09
-1.3438531e-06
1.5186209e-09
-9.469231e-07
1.0568057e-09
-6.5036809e-07
7.2785326e-10
-4.4345992e-07
4.964173e-10
-3.0258663e-07
3.3549231e-10
-2.0618966e-07
2.2449332e-10
-1.4019344e-07
1.4874059e-10
-9.5012192e-08
9.7370275e-11
-6.4122932e-08
6.2991394e-11
-4.30614e-08
4.0085712e-11
-2.8741355e-08
2.5048555e-11
-1.9030308e-08
1.5228163e-11
-1.2465095e-08
8.9515499e-12
-8.0448164e-09
4.9947471e-12
-5.0851571e-09
2.588488e-12
-3.118184e-09
1.1845112e-12
-1.8239501e-09
4.3189968e-13
-9.8383483e-10
8.9935318e-14
-4.486454e-10
-1.1677455e-10
-8.9566054e-09
-4.0602381e-05
-1.6152995e-08
-3.3700266e-05
-2.0232651e-08
-2.7326281e-05
-2.0597332e-08
-2.1619405e-05
-1.5315424e-08
-1.6217875e-05
-5.5712012e-09
-1.0781766e-05
5.3587054e-10
-6.62612e-06
2.7664573e-09
-4.1985728e-06
3.0798072e-09
-2.7807105e-06
2.6683286e-09
-1.9061461e-06
2.086662e-09
-1.3432715e-06
1.5187521e-09
-9.4635516e-07
1.0567329e-09
-6.4990615e-07
7.2778662e-10
-4.4313093e-07
4.9640873e-10
-3.0235533e-07
3.3551751e-10
-2.0602873e-07
2.2454854e-10
-1.4008254e-07
1.487992e-10
-9.493641e-08
9.7437337e-11
-6.407162e-08
6.3048144e-11
-4.3026987e-08
4.0140629e-11
-2.8718479e-08
2.5091112e-11
-1.9015244e-08
1.5266759e-11
-1.2455288e-08
8.9824132e-12
-8.0385253e-09
5.0200655e-12
-5.0812027e-09
2.6083097e-12
-3.1157706e-09
1.1969408e-12
-1.8225434e-09
4.3704617e-13
-9.8307766e-10
8.996049e-14
-4.4830024e-10
-1.1668459e-10
-8.9654225e-09
-4.0593416e-05
-1.6166798e-08
-3.3693064e-05
-2.025321e-08
-2.7322194e-05
-2.0628787e-08
-2.1619029e-05
-1.5365725e-08
-1.6223138e-05
-5.6156316e-09
-1.0791516e-05
5.1652206e-10
-6.6322522e-06
2.7615445e-09
-4.2008178e-06
3.0794969e-09
-2.7810285e-06
2.6689367e-09
-1.9057355e-06
2.086958e-09
-1.3426896e-06
1.5185269e-09
-9.4578669e-07
1.0563562e-09
-6.4944405e-07
7.2746102e-10
-4.42802e-07
4.9616765e-10
-3.021241e-07
3.353379e-10
-2.0586786e-07
2.2441542e-10
-1.3997168e-07
1.4869544e-10
-9.4860648e-08
9.7358813e-11
-6.4020319e-08
6.2985502e-11
-4.2992579e-08
4.0093842e-11
-2.8695605e-08
2.5053443e-11
-1.9000181e-08
1.523845e-11
-1.2445481e-08
8.9579286e-12
-8.0322342e-09
5.0017418e-12
-5.0772483e-09
2.5927856e-12
-3.1133573e-09
1.1875387e-12
-1.8211368e-09
4.3314715e-13
-9.8232048e-10
8.9963528e-14
-4.4795508e-10
-1.1659462e-10
-8.9744597e-09
-4.0584441e-05
-1.6181093e-08
-3.3685858e-05
-2.0274341e-08
-2.7318101e-05
-2.0661006e-08
-2.1618642e-05
-1.5416969e-08
-1.6228382e-05
-5.6609785e-09
-1.0801272e-05
4.9702497e-10
-6.6384102e-06
2.7563366e-09
-4.2030771e-06
3.0789535e-09
-2.7813511e-06
2.6693943e-09
-1.9053259e-06
2.0871474e-09
-1.3421074e-06
1.5182293e-09
-9.4521775e-07
1.0559897e-09
-6.4898187e-07
7.2721397e-10
-4.424732e-07
4.9606687e-10
-3.0189303e-07
3.3532511e-10
-2.057071e-07
2.2446543e-10
-1.3986089e-07
1.4876587e-10
-9.4784938e-08
9.7438459e-11
-6.3969051e-08
6.3058381e-11
-4.2958192e-08
4.0155944e-11
-2.8672744e-08
2.5104732e-11
-1.8985125e-08
1.5278887e-11
-1.2435679e-08
8.99195e-12
-8.0259455e-09
5.027633e-12
-5.0732951e-09
2.6148249e-12
-3.1109446e-09
1.2006777e-12
-1.8197304e-09
4.3861855e-13
-9.8156347e-10
8.994673e-14
-4.4760999e-10
-1.1650468e-10
-8.9836826e-09
-4.0575458e-05
-1.6195811e-08
-3.3678645e-05
-2.0295972e-08
-2.7314001e-05
-2.0693679e-08
-2.1618245e-05
-1.5468311e-08
-1.6233607e-05
-5.7063385e-09
-1.0811034e-05
4.7662323e-10
-6.6445932e-06
2.7504917e-09
-4.2053509e-06
3.0779435e-09
-2.7816786e-06
2.6694266e-09
-1.9049173e-06
2.0869472e-09
-1.341525e-06
1.5175556e-09
-9.4464833e-07
1.0552681e-09
-6.4851965e-07
7.2663791e-10
-4.4214454e-07
4.9564314e-10
-3.016621e-07
3.350142e-10
-2.0554645e-07
2.2423371e-10
-1.3975017e-07
1.4858865e-10
-9.4709268e-08
9.7302355e-11
-6.3917809e-08
6.2952476e-11
-4.292382e-08
4.0075383e-11
-2.8649892e-08
2.5041638e-11
-1.8970076e-08
1.5229983e-11
-1.242588e-08
8.9515384e-12
-8.0196596e-09
4.9967293e-12
-5.0693437e-09
2.5883273e-12
-3.108533e-09
1.1851668e-12
-1.8183248e-09
4.3220504e-13
-9.8080682e-10
8.9899953e-14
-4.4726506e-10
-1.1641478e-10
-8.9930578e-09
-4.0566465e-05
-1.621085e-08
-3.3671428e-05
-2.0317977e-08
-2.7309894e-05
-2.0726383e-08
-2.1617836e-05
-1.5520024e-08
-1.6238814e-05
-5.7527011e-09
-1.0820801e-05
4.5596393e-10
-6.6508019e-06
2.7445335e-09
-4.2076395e-06
3.0767662e-09
-2.7820109e-06
2.6693747e-09
-1.9045099e-06
2.0866603e-09
-1.3409423e-06
1.5168009e-09
-9.4407844e-07
1.0545197e-09
-6.4805742e-07
7.2608478e-10
-4.4181608e-07
4.9528803e-10
-3.0143136e-07
3.3479969e-10
-2.0538593e-07
2.2412232e-10
-1.3963955e-07
1.4853593e-10
-9.463366e-08
9.7292791e-11
-6.3866604e-08
6.2958464e-11
-4.2889471e-08
4.0095637e-11
-2.8627054e-08
2.5062724e-11
-1.8955035e-08
1.5254969e-11
-1.2416086e-08
8.9751117e-12
-8.0133765e-09
5.0181449e-12
-5.0653942e-09
2.6080105e-12
-3.1061225e-09
1.1973113e-12
-1.8169198e-09
4.37274e-13
-9.8005051e-10
8.9860746e-14
-4.469203e-10
-1.1632492e-10
-9.0025808e-09
-4.0557462e-05
-1.6226083e-08
-3.3664204e-05
-2.0340194e-08
-2.730578e-05
-2.0759431e-08
-2.1617417e-05
-1.5572451e-08
-1.6244001e-05
-5.7993458e-09
-1.0830574e-05
4.3546527e-10
-6.6570368e-06
2.7384719e-09
-4.2099425e-06
3.075541e-09
-2.782348e-06
2.6692358e-09
-1.9041036e-06
2.0862396e-09
-1.3403594e-06
1.5159233e-09
-9.435081e-07
1.0536483e-09
-6.475952e-07
7.2540608e-10
-4.4148781e-07
4.9479808e-10
-3.0120081e-07
3.344508e-10
-2.0522556e-07
2.2387349e-10
-1.3952901e-07
1.4835601e-10
-9.4558112e-08
9.7162997e-11
-6.3815438e-08
6.2862965e-11
-4.2855146e-08
4.0026389e-11
-2.8604231e-08
2.5009999e-11
-1.8940003e-08
1.5215752e-11
-1.2406298e-08
8.9430981e-12
-8.0070969e-09
4.9944751e-12
-5.0614466e-09
2.5877237e-12
-3.1037132e-09
1.1855988e-12
-1.8155154e-09
4.32446e-13
-9.7929454e-10
8.9823772e-14
-4.4657568e-10
-1.1623509e-10
-9.0122052e-09
-4.054845e-05
-1.6241429e-08
-3.3656975e-05
-2.0362374e-08
-2.7301659e-05
-2.0792653e-08
-2.1616987e-05
-1.5624244e-08
-1.6249169e-05
-5.8460846e-09
-1.0840352e-05
4.1392057e-10
-6.6632968e-06
2.7318891e-09
-4.2122604e-06
3.0740277e-09
-2.7826902e-06
2.668825e-09
-1.9036984e-06
2.0856551e-09
-1.3397762e-06
1.5149962e-09
-9.4293743e-07
1.0528149e-09
-6.4713307e-07
7.24832e-10
-4.4115982e-07
4.9447067e-10
-3.0097051e-07
3.3428653e-10
-2.0506537e-07
2.238222e-10
-1.3941861e-07
1.4836532e-10
-9.4482654e-08
9.7205168e-11
-6.3764332e-08
6.2917777e-11
-4.2820859e-08
4.0080341e-11
-2.8581432e-08
2.5062044e-11
-1.8924986e-08
1.5260046e-11
-1.2396519e-08
8.9835076e-12
-8.0008224e-09
5.0262976e-12
-5.057502e-09
2.6161594e-12
-3.1013056e-09
1.2023952e-12
-1.814112e-09
4.394555e-13
-9.7853905e-10
8.9766133e-14
-4.4623128e-10
-1.1614533e-10
-9.0219285e-09
-4.0539428e-05
-1.6256849e-08
-3.364974e-05
-2.0384633e-08
-2.7297531e-05
-2.0826014e-08
-2.1616545e-05
-1.5676832e-08
-1.6254318e-05
-5.8932903e-09
-1.0850136e-05
3.9266482e-10
-6.6695828e-06
2.72549e-09
-4.2145933e-06
3.0725259e-09
-2.7830373e-06
2.668371e-09
-1.9032942e-06
2.0849565e-09
-1.3391929e-06
1.5138997e-09
-9.4236635e-07
1.0517792e-09
-6.46671e-07
7.2404205e-10
-4.4083207e-07
4.9390235e-10
-3.0074042e-07
3.3388071e-10
-2.0490533e-07
2.2352705e-10
-1.3930831e-07
1.4814676e-10
-9.4407261e-08
9.704082e-11
-6.3713266e-08
6.2793402e-11
-4.2786598e-08
3.9985901e-11
-2.8558649e-08
2.4988341e-11
-1.8909979e-08
1.5201931e-11
-1.2386746e-08
8.9353451e-12
-7.9945521e-09
4.9890174e-12
-5.05356e-09
2.5839736e-12
-3.0988995e-09
1.1836182e-12
-1.8127094e-09
4.3169624e-13
-9.7778401e-10
8.9712044e-14
-4.4588708e-10
-1.1605562e-10
-9.0317199e-09
-4.0530396e-05
-1.6272301e-08
-3.3642499e-05
-2.040687e-08
-2.7293396e-05
-2.0859413e-08
-2.1616093e-05
-1.5729582e-08
-1.6259448e-05
-5.940798e-09
-1.0859925e-05
3.7135089e-10
-6.6758949e-06
2.7188504e-09
-4.2169408e-06
3.0709201e-09
-2.7833894e-06
2.6679104e-09
-1.9028912e-06
2.0842186e-09
-1.3386092e-06
1.5127517e-09
-9.4179487e-07
1.0507299e-09
-6.4620902e-07
7.2328029e-10
-4.405046e-07
4.9340146e-10
-3.0051059e-07
3.3356466e-10
-2.0474548e-07
2.2334305e-10
-1.3919813e-07
1.4804387e-10
-9.4331949e-08
9.6995257e-11
-6.3662252e-08
6.2774819e-11
-4.2752369e-08
3.9989309e-11
-2.8535886e-08
2.4999079e-11
-1.8894984e-08
1.5221002e-11
-1.2376981e-08
8.9562836e-12
-7.9882867e-09
5.0096736e-12
-5.0496211e-09
2.6048804e-12
-3.0964953e-09
1.1963826e-12
-1.8113079e-09
4.3704219e-13
-9.7702958e-10
8.9638811e-14
-4.4554316e-10
-1.1596598e-10
-9.0415773e-09
-4.0521354e-05
-1.6287764e-08
-3.3635253e-05
-2.0428974e-08
-2.7289255e-05
-2.0892709e-08
-2.1615629e-05
-1.5781833e-08
-1.6264559e-05
-5.9885627e-09
-1.0869718e-05
3.492044e-10
-6.6822327e-06
2.7119009e-09
-4.2193034e-06
3.0691234e-09
-2.7837466e-06
2.6673002e-09
-1.9024893e-06
2.0833423e-09
-1.3380253e-06
1.5114486e-09
-9.4122296e-07
1.0495396e-09
-6.4574715e-07
7.2238558e-10
-4.4017743e-07
4.92764e-10
-3.0028102e-07
3.3311431e-10
-2.0458581e-07
2.2302313e-10
-1.3908808e-07
1.4781359e-10
-9.4256718e-08
9.6829116e-11
-6.3611291e-08
6.2653402e-11
-4.2718175e-08
3.9900272e-11
-2.8513146e-08
2.4931758e-11
-1.8880004e-08
1.5169408e-11
-1.2367225e-08
8.9148504e-12
-7.9820266e-09
4.9783007e-12
-5.0456854e-09
2.5778792e-12
-3.094093e-09
1.1809673e-12
-1.8099076e-09
4.3069397e-13
-9.7627573e-10
8.9574229e-14
-4.451995e-10
-1.158764e-10
-9.0514753e-09
-4.0512303e-05
-1.6303302e-08
-3.3628001e-05
-2.0451142e-08
-2.7285107e-05
-2.0926332e-08
-2.1615154e-05
-1.5834746e-08
-1.6269651e-05
-6.0363341e-09
-1.0879516e-05
3.2774775e-10
-6.6885968e-06
2.7052432e-09
-4.2216809e-06
3.0674635e-09
-2.7841089e-06
2.6668173e-09
-1.9020887e-06
2.0825963e-09
-1.3374411e-06
1.510251e-09
-9.4065061e-07
1.048504e-09
-6.4528545e-07
7.2168558e-10
-4.3985061e-07
4.9235708e-10
-3.0005174e-07
3.3290019e-10
-2.0442636e-07
2.2294191e-10
-1.3897817e-07
1.4780623e-10
-9.4181587e-08
9.6866292e-11
-6.3560396e-08
6.2708065e-11
-4.2684023e-08
3.9961127e-11
-2.8490431e-08
2.4991106e-11
-1.8865039e-08
1.5224205e-11
-1.2357479e-08
8.9640755e-12
-7.9757723e-09
5.0186001e-12
-5.0417529e-09
2.6134572e-12
-3.0916925e-09
1.2020892e-12
-1.8085082e-09
4.3950319e-13
-9.7552236e-10
8.9516821e-14
-4.4485605e-10
-1.1578689e-10
-9.0614208e-09
-4.0503242e-05
-1.6318881e-08
-3.3620744e-05
-2.047322e-08
-2.7280953e-05
-2.0959484e-08
-2.1614668e-05
-1.5887083e-08
-1.6274723e-05
-6.0847829e-09
-1.0889319e-05
3.05563e-10
-6.6949872e-06
2.6981618e-09
-4.2240735e-06
3.0655884e-09
-2.7844763e-06
2.666168e-09
-1.9016893e-06
2.0816443e-09
-1.3368566e-06
1.5088408e-09
-9.4007779e-07
1.0472492e-09
-6.448239e-07
7.2076195e-10
-4.3952411e-07
4.9170642e-10
-2.9982273e-07
3.3244163e-10
-2.0426708e-07
2.2261154e-10
-1.3886838e-07
1.4756305e-10
-9.4106532e-08
9.6683742e-11
-6.350955e-08
6.2570302e-11
-4.2649902e-08
3.9855335e-11
-2.8467738e-08
2.4908588e-11
-1.8850088e-08
1.5158075e-11
-1.2347741e-08
8.9097628e-12
-7.9695235e-09
4.97628e-12
-5.0378239e-09
2.5771292e-12
-3.0892941e-09
1.1809696e-12
-1.80711e-09
4.3078826e-13
-9.7476965e-10
8.9437961e-14
-4.4451291e-10
-1.1569745e-10
-9.071443e-09
-4.049417e-05
-1.6334564e-08
-3.3613481e-05
-2.0495365e-08
-2.7276792e-05
-2.0992734e-08
-2.161417e-05
-1.5939758e-08
-1.6279776e-05
-6.1328181e-09
-1.0899126e-05
2.8340304e-10
-6.7014034e-06
2.6911079e-09
-4.2264812e-06
3.0637707e-09
-2.784849e-06
2.6654785e-09
-1.901291e-06
2.0806282e-09
-1.3362718e-06
1.5074043e-09
-9.3950456e-07
1.0460073e-09
-6.4436254e-07
7.1989636e-10
-4.3919799e-07
4.9114979e-10
-2.9959402e-07
3.3209504e-10
-2.0410802e-07
2.2240942e-10
-1.3875874e-07
1.474496e-10
-9.4031569e-08
9.6630567e-11
-6.3458762e-08
6.2547036e-11
-4.2615818e-08
3.9855104e-11
-2.8445066e-08
2.4917442e-11
-1.8835152e-08
1.5176193e-11
-1.2338012e-08
8.9306703e-12
-7.9632804e-09
4.9973072e-12
-5.0338987e-09
2.5991242e-12
-3.086898e-09
1.1943055e-12
-1.8057132e-09
4.3638029e-13
-9.7401767e-10
8.9351195e-14
-4.441701e-10
-1.156081e-10
-9.0815673e-09
-4.0485089e-05
-1.6350282e-08
-3.3606212e-05
-2.0517587e-08
-2.7272625e-05
-2.1026168e-08
-2.1613662e-05
-1.5992555e-08
-1.628481e-05
-6.1814124e-09
-1.0908937e-05
2.6168946e-10
-6.7078466e-06
2.6843217e-09
-4.2289039e-06
3.0620323e-09
-2.7852267e-06
2.6648272e-09
-1.9008937e-06
2.0795931e-09
-1.3356866e-06
1.5058887e-09
-9.3893085e-07
1.0446683e-09
-6.4390135e-07
7.1893614e-10
-4.3887225e-07
4.9048641e-10
-2.9936561e-07
3.3163623e-10
-2.0394916e-07
2.2208772e-10
-1.3864922e-07
1.4722041e-10
-9.3956691e-08
9.6465584e-11
-6.3408029e-08
6.2427182e-11
-4.2581769e-08
3.9766407e-11
-2.8422418e-08
2.4850335e-11
-1.8820229e-08
1.5123807e-11
-1.2328292e-08
8.8885269e-12
-7.9570428e-09
4.9649443e-12
-5.0299766e-09
2.5710601e-12
-3.0845039e-09
1.1782765e-12
-1.8043174e-09
4.2978203e-13
-9.7326626e-10
8.9289502e-14
-4.4382754e-10
-1.1551881e-10
-9.0917467e-09
-4.0475997e-05
-1.6365902e-08
-3.3598938e-05
-2.0539603e-08
-2.7268451e-05
-2.1059193e-08
-2.1613142e-05
-1.6044895e-08
-1.6289824e-05
-6.2304049e-09
-1.0918751e-05
2.3898739e-10
-6.714316e-06
2.6768609e-09
-4.2313417e-06
3.0600096e-09
-2.7856099e-06
2.664137e-09
-1.9004979e-06
2.078576e-09
-1.335101e-06
1.5043881e-09
-9.3835666e-07
1.0434078e-09
-6.4344041e-07
7.1812875e-10
-4.3854698e-07
4.9003026e-10
-2.9913756e-07
3.3140201e-10
-2.0379055e-07
2.2200211e-10
-1.3853987e-07
1.4721773e-10
-9.3881923e-08
9.651264e-11
-6.3357368e-08
6.2494174e-11
-4.2547767e-08
3.9841313e-11
-2.8399799e-08
2.4923478e-11
-1.8805325e-08
1.5192261e-11
-1.2318583e-08
8.9495635e-12
-7.9508118e-09
5.0151469e-12
-5.0260585e-09
2.6147699e-12
-3.0821119e-09
1.2043445e-12
-1.8029229e-09
4.4065071e-13
-9.7251546e-10
8.9216989e-14
-4.4348525e-10
-1.1542959e-10
-9.101955e-09
-4.0466895e-05
-1.6381417e-08
-3.3591658e-05
-2.0561707e-08
-2.7264271e-05
-2.1092614e-08
-2.1612611e-05
-1.6098206e-08
-1.6294818e-05
-6.2790381e-09
-1.092857e-05
2.1652601e-10
-6.7208116e-06
2.6696098e-09
-4.2337948e-06
3.0580594e-09
-2.7859984e-06
2.6634336e-09
-1.9001032e-06
2.0774874e-09
-1.3345151e-06
1.5027062e-09
-9.3778188e-07
1.0419191e-09
-6.4297965e-07
7.1709768e-10
-4.3822216e-07
4.8932602e-10
-2.9890983e-07
3.3091378e-10
-2.0363214e-07
2.2165279e-10
-1.3843065e-07
1.4696084e-10
-9.3807237e-08
9.6318184e-11
-6.330676e-08
6.2346397e-11
-4.2513799e-08
3.9725051e-11
-2.8377201e-08
2.4831528e-11
-1.8790435e-08
1.5116214e-11
-1.2308884e-08
8.8863159e-12
-7.9445866e-09
4.9649029e-12
-5.0221438e-09
2.5714193e-12
-3.079722e-09
1.1789514e-12
-1.8015295e-09
4.3016381e-13
-9.7176532e-10