/*--------------------------------*- C++ -*----------------------------------*\
| =========                 |                                                 |
| \\      /  F ield         | OpenFOAM: The Open Source CFD Toolbox           |
|  \\    /   O peration     | Version:  v2012                                 |
|   \\  /    A nd           | Website:  www.openfoam.com                      |
|    \\/     M anipulation  |                                                 |
\*---------------------------------------------------------------------------*/
FoamFile
{
    version     2.0;
    format      ascii;
    class       volScalarField;
    location    "400";
    object      rho;
}
// * * * * * * * * * * * * * * * * * * * * * * * * * * * * * * * * * * * * * //

dimensions      [1 -3 0 0 0 0 0];


internalField   nonuniform List<scalar> 
24000
(
22.623895
22.386926
21.554279
20.25045
17.885214
13.735326
9.661738
6.9742507
5.246383
4.106569
3.3607248
2.8063616
2.3595141
2.0530496
1.8503202
1.7105558
1.6105885
1.5367927
1.4809486
1.4378898
1.4041788
1.3774302
1.3559556
1.338538
1.3242829
1.3125209
1.3027426
1.294555
1.2876512
1.2817892
22.625546
22.388709
21.557201
20.255215
17.89555
13.757283
9.6825363
6.9882771
5.2559739
4.113069
3.3653991
2.8100343
2.3623244
2.0551199
1.8519021
1.7118192
1.6116357
1.5376895
1.4817387
1.4386039
1.4048392
1.3780526
1.3565511
1.339114
1.3248444
1.3130711
1.3032837
1.2950883
1.2881776
1.2823094
22.627244
22.390514
21.560269
20.260903
17.908456
13.7782
9.6989587
6.9975791
5.2615898
4.1165654
3.3676619
2.8116895
2.3636816
2.05619
1.8527642
1.7125419
1.6122616
1.5382459
1.4822418
1.4390642
1.4052657
1.3784531
1.356932
1.3394805
1.3252003
1.313419
1.3036252
1.2954247
1.2885097
1.2826375
22.628947
22.392384
21.563554
20.266976
17.921317
13.79792
9.7139122
7.0055577
5.2662272
4.1192339
3.3691816
2.8126269
2.3644021
2.0567263
1.8531445
1.7127968
1.6124213
1.5383419
1.4822989
1.4390997
1.4052902
1.3784725
1.3569492
1.3394966
1.3252157
1.3134339
1.3036396
1.2954388
1.2885234
1.2826512
22.630654
22.39429
21.566934
20.273191
17.934105
13.817085
9.728192
7.0132068
5.2704757
4.1214186
3.3702998
2.8132228
2.3648382
2.0570958
1.8534519
1.7130608
1.6126562
1.5385516
1.4824875
1.4392717
1.4054495
1.3786222
1.3570917
1.3396338
1.3253488
1.3135638
1.3037671
1.2955642
1.2886472
1.2827735
22.632363
22.396222
21.570362
20.279439
17.946761
13.835958
9.7421776
7.0208261
5.2744814
4.1233385
3.3711915
2.8136076
2.3650642
2.0572905
1.8536138
1.7131953
1.6127691
1.5386481
1.4825726
1.4393493
1.4055223
1.3786919
1.3571592
1.3396997
1.3254134
1.3136274
1.3038298
1.2956261
1.2887084
1.282834
22.634073
22.39817
21.573811
20.28569
17.959324
13.85469
9.7560477
7.0284432
5.2783477
4.1251086
3.3719579
2.8138782
2.365181
2.0574029
1.8537179
1.7132911
1.6128575
1.5387306
1.4826506
1.439424
1.4055945
1.378762
1.3572278
1.3397669
1.3254796
1.3136926
1.3038941
1.2956896
1.2887712
1.2828961
22.635783
22.400126
21.577268
20.291931
17.971822
13.873347
9.769899
7.0360587
5.2821354
4.1267931
3.3726518
2.814081
2.365232
2.0574637
1.8537834
1.7133571
1.6129224
1.5387936
1.4827119
1.439484
1.4056534
1.3788201
1.3572851
1.3398235
1.3255355
1.3137479
1.3039488
1.2957438
1.2888247
1.2829492
22.637492
22.402087
21.580728
20.298163
17.984273
13.891971
9.7837625
7.0436807
5.2858816
4.12843
3.3733039
2.814244
2.3652451
2.0574955
1.8538276
1.7134075
1.6129755
1.5388476
1.4827662
1.4395382
1.4057075
1.3788739
1.3573384
1.3398764
1.325588
1.3137999
1.3040003
1.2957948
1.2888752
1.2829991
22.6392
22.40405
21.584188
20.304384
17.996688
13.910583
9.7976535
7.0513186
5.2896074
4.1300396
3.3739307
2.8143827
2.3652352
2.0575097
1.8538588
1.7134483
1.6130213
1.538896
1.4828158
1.4395886
1.4057583
1.3789247
1.3573892
1.3399269
1.3256382
1.3138497
1.3040497
1.2958437
1.2889237
1.2830471
22.640907
22.406014
21.587647
20.310596
18.009077
13.929193
9.8115855
7.0589767
5.2933259
4.1316342
3.3745422
2.8145059
2.3652111
2.0575133
1.8538824
1.7134836
1.6130631
1.5389412
1.4828631
1.4396371
1.4058074
1.3789742
1.3574386
1.3399763
1.3256873
1.3138985
1.3040981
1.2958917
1.2889712
1.2830942
22.642612
22.407978
21.591104
20.3168
18.021442
13.947813
9.8255578
7.0666602
5.2970445
4.133221
3.3751439
2.8146192
2.365178
2.0575105
1.8539016
1.7135157
1.6131025
1.5389847
1.482909
1.4396846
1.4058558
1.379023
1.3574876
1.3400252
1.325736
1.3139469
1.3041462
1.2959393
1.2890185
1.2831409
22.644316
22.409941
21.59456
20.322996
18.033787
13.966444
9.8395767
7.0743702
5.3007675
4.1348042
3.3757394
2.8147256
2.3651393
2.0575038
1.8539181
1.7135459
1.6131407
1.5390274
1.4829544
1.4397316
1.4059039
1.3790716
1.3575364
1.340074
1.3257846
1.3139953
1.3041942
1.295987
1.2890657
1.2831876
22.646017
22.411904
21.598015
20.329186
18.046116
13.985092
9.8536438
7.0821101
5.3044986
4.1363865
3.376331
2.8148272
2.3650966
2.0574948
1.8539332
1.7135753
1.6131784
1.5390698
1.4829996
1.4397787
1.405952
1.3791203
1.3575854
1.340123
1.3258335
1.3140438
1.3042425
1.2960348
1.2891131
1.2832346
22.647717
22.413866
21.601468
20.335369
18.058429
14.003757
9.8677566
7.0898794
5.308239
4.1379699
3.3769199
2.8149251
2.3650515
2.0574845
1.8539476
1.7136044
1.6132159
1.5391122
1.483045
1.4398259
1.4060004
1.3791693
1.3576346
1.3401723
1.3258826
1.3140927
1.304291
1.296083
1.2891608
1.2832818
22.649416
22.415828
21.604921
20.341546
18.070725
14.02244
9.8819222
7.0976809
5.31199
4.1395553
3.377507
2.81502
2.3650045
2.0574734
1.8539618
1.7136335
1.6132536
1.5391548
1.4830906
1.4398735
1.4060491
1.3792187
1.3576843
1.3402219
1.3259321
1.314142
1.30434
1.2961315
1.2892089
1.2833295
22.651112
22.417789
21.608372
20.347718
18.083009
14.041145
9.8961364
7.1055129
5.3157532
4.1411432
3.3780928
2.8151125
2.3649563
2.0574621
1.8539761
1.7136629
1.6132917
1.5391979
1.4831367
1.4399215
1.4060983
1.3792684
1.3577343
1.340272
1.3259821
1.3141917
1.3043893
1.2961805
1.2892574
1.2833775
22.652807
22.419749
21.611822
20.353885
18.095277
14.059868
9.9103993
7.1133787
5.319528
4.1427347
3.3786779
2.815203
2.3649074
2.0574508
1.8539908
1.7136927
1.6133302
1.5392414
1.4831833
1.43997
1.4061479
1.3793187
1.3577849
1.3403226
1.3260325
1.3142419
1.3044391
1.2962299
1.2893064
1.2834259
22.6545
22.421709
21.615271
20.360046
18.107532
14.078612
9.9247156
7.1212758
5.3233158
4.1443296
3.3792623
2.8152917
2.3648578
2.0574399
1.854006
1.7137231
1.6133694
1.5392855
1.4832303
1.440019
1.406198
1.3793695
1.3578359
1.3403736
1.3260834
1.3142925
1.3044894
1.2962797
1.2893558
1.2834748
22.656191
22.423668
21.618718
20.366202
18.119773
14.097377
9.9390804
7.1292074
5.3271167
4.1459279
3.3798462
2.815379
2.3648079
2.0574294
1.8540219
1.7137542
1.6134091
1.5393302
1.483278
1.4400685
1.4062487
1.3794207
1.3578874
1.3404251
1.3261347
1.3143435
1.3045401
1.2963301
1.2894056
1.2835242
22.65788
22.425627
21.622164
20.372353
18.132001
14.116161
9.9534972
7.1371709
5.3309305
4.1475302
3.3804297
2.8154649
2.3647579
2.0574195
1.8540386
1.7137861
1.6134496
1.5393755
1.4833263
1.4401187
1.4063
1.3794725
1.3579394
1.3404771
1.3261866
1.3143951
1.3045913
1.2963808
1.2894559
1.283574
22.659568
22.427585
21.625608
20.378498
18.144215
14.134968
9.9679663
7.1451697
5.3347582
4.1491366
3.381013
2.8155493
2.3647077
2.0574104
1.8540562
1.7138187
1.6134908
1.5394216
1.4833752
1.4401694
1.4063518
1.3795249
1.357992
1.3405297
1.326239
1.3144472
1.304643
1.2964321
1.2895067
1.2836243
22.661253
22.429543
21.629051
20.384638
18.156415
14.153792
9.982484
7.1532008
5.3385994
4.1507468
3.381596
2.8156324
2.3646576
2.0574021
1.8540747
1.7138523
1.6135329
1.5394683
1.4834248
1.4402208
1.4064041
1.3795778
1.3580451
1.3405827
1.3262918
1.3144997
1.3046952
1.2964838
1.2895579
1.283675
22.662937
22.4315
21.632492
20.390773
18.168601
14.172638
9.9970561
7.1612677
5.3424542
4.1523616
3.3821788
2.8157141
2.3646077
2.0573947
1.8540943
1.7138869
1.6135758
1.5395159
1.4834751
1.4402727
1.4064571
1.3796313
1.3580987
1.3406363
1.3263452
1.3145528
1.3047478
1.296536
1.2896097
1.2837262
22.664618
22.433456
21.635932
20.396902
18.180775
14.191505
10.01168
7.1693672
5.3463232
4.1539805
3.3827613
2.8157946
2.364558
2.0573884
1.854115
1.7139224
1.6136195
1.5395641
1.4835261
1.4403253
1.4065107
1.3796853
1.3581529
1.3406904
1.326399
1.3146063
1.304801
1.2965887
1.2896618
1.2837778
22.666298
22.435412
21.63937
20.403027
18.192934
14.210388
10.026352
7.1775029
5.350206
4.1556034
3.3833436
2.8158739
2.3645087
2.0573831
1.8541368
1.7139589
1.6136642
1.5396132
1.4835777
1.4403786
1.4065648
1.3797399
1.3582076
1.3407451
1.3264534
1.3146604
1.3048546
1.2966419
1.2897145
1.28383
22.667976
22.437367
21.642808
20.409146
18.205079
14.229295
10.04108
7.185672
5.3541029
4.1572306
3.3839256
2.815952
2.3644597
2.0573791
1.8541598
1.7139965
1.6137097
1.5396631
1.4836301
1.4404325
1.4066196
1.3797951
1.3582629
1.3408002
1.3265083
1.3147149
1.3049087
1.2966955
1.2897676
1.2838826
22.669652
22.439322
21.646244
20.41526
18.217212
14.248218
10.055859
7.193877
5.3580142
4.1588623
3.3845072
2.8160287
2.3644112
2.0573763
1.8541841
1.7140353
1.6137563
1.5397139
1.4836833
1.4404871
1.406675
1.3798508
1.3583187
1.3408559
1.3265637
1.31477
1.3049633
1.2967497
1.2898213
1.2839357
22.671326
22.441277
21.649678
20.421368
18.229328
14.267161
10.070689
7.2021162
5.3619398
4.1604981
3.3850884
2.8161041
2.3643632
2.0573749
1.8542099
1.7140753
1.6138039
1.5397655
1.4837372
1.4405424
1.4067311
1.3799072
1.3583751
1.3409121
1.3266197
1.3148255
1.3050184
1.2968042
1.2898753
1.2839892
22.672998
22.443231
21.653112
20.427471
18.241432
14.286125
10.085574
7.2103914
5.3658797
4.1621386
3.3856693
2.816178
2.3643158
2.0573749
1.854237
1.7141165
1.6138525
1.539818
1.4837919
1.4405985
1.4067878
1.3799642
1.3584321
1.3409689
1.3266761
1.3148816
1.305074
1.2968594
1.2899299
1.2840432
22.674669
22.445185
21.656545
20.433568
18.253521
14.305102
10.100509
7.2187014
5.3698344
4.1637835
3.3862497
2.8162506
2.3642691
2.0573766
1.8542657
1.714159
1.6139022
1.5398714
1.4838474
1.4406552
1.4068452
1.3800217
1.3584896
1.3410262
1.3267331
1.3149382
1.3051301
1.296915
1.289985
1.2840977
22.676337
22.447138
21.659977
20.439659
18.265596
14.324104
10.115498
7.2270471
5.3738036
4.1654326
3.3868295
2.8163218
2.3642233
2.0573799
1.854296
1.7142028
1.613953
1.5399258
1.4839038
1.4407127
1.4069032
1.38008
1.3585477
1.3410841
1.3267907
1.3149953
1.3051868
1.2969711
1.2900405
1.2841527
22.678003
22.449092
21.663408
20.445746
18.277657
14.343119
10.130542
7.2354286
5.3777874
4.1670861
3.3874087
2.8163915
2.3641782
2.0573851
1.8543279
1.714248
1.614005
1.5399812
1.483961
1.4407709
1.4069619
1.3801388
1.3586065
1.3411426
1.3268487
1.3150529
1.3052439
1.2970277
1.2900966
1.2842082
22.679667
22.451045
21.666839
20.451827
18.289703
14.362154
10.145635
7.2438455
5.3817864
4.1687445
3.3879874
2.8164595
2.3641341
2.0573922
1.8543617
1.7142947
1.6140581
1.5400376
1.4840191
1.4408299
1.4070214
1.3801983
1.3586658
1.3412016
1.3269074
1.3151111
1.3053016
1.2970848
1.2901532
1.2842642
22.681329
22.452998
21.670268
20.457903
18.301736
14.381209
10.160785
7.2522989
5.3858001
4.1704072
3.3885654
2.8165256
2.3640909
2.0574013
1.8543973
1.7143429
1.6141125
1.540095
1.484078
1.4408897
1.4070815
1.3802585
1.3587258
1.3412612
1.3269666
1.3151698
1.3053598
1.2971424
1.2902102
1.2843206
22.682989
22.454951
21.673696
20.463973
18.313752
14.400274
10.175988
7.2607873
5.3898288
4.172075
3.3891429
2.8165896
2.3640488
2.0574128
1.8544348
1.7143926
1.6141682
1.5401535
1.4841379
1.4409503
1.4071424
1.3803193
1.3587864
1.3413215
1.3270264
1.3152291
1.3054185
1.2972006
1.2902678
1.2843776
22.684646
22.456903
21.677122
20.470037
18.325755
14.419366
10.191243
7.269313
5.3938731
4.1737474
3.3897196
2.8166517
2.3640078
2.0574266
1.8544744
1.7144439
1.6142252
1.5402131
1.4841987
1.4410117
1.4072039
1.3803808
1.3588476
1.3413823
1.3270867
1.3152889
1.3054778
1.2972593
1.2903259
1.2844351
22.686301
22.458855
21.680546
20.476095
18.337743
14.438465
10.206554
7.2778734
5.3979321
4.1754246
3.3902957
2.8167115
2.363968
2.057443
1.854516
1.7144969
1.6142835
1.5402737
1.4842605
1.441074
1.4072663
1.380443
1.3589095
1.3414437
1.3271477
1.3153493
1.3055376
1.2973185
1.2903846
1.2844931
22.687954
22.460807
21.683969
20.482148
18.349716
14.457587
10.22192
7.2864717
5.4020067
4.1771067
3.3908712
2.816769
2.3639295
2.0574622
1.8545598
1.7145516
1.6143431
1.5403355
1.4843232
1.4411371
1.4073294
1.3805059
1.358972
1.3415057
1.3272092
1.3154102
1.305598
1.2973783
1.2904437
1.2845516
22.689605
22.462758
21.687389
20.488195
18.361673
14.476725
10.237338
7.2951044
5.4060971
4.1787941
3.3914461
2.8168238
2.3638922
2.0574842
1.8546058
1.7146079
1.6144042
1.5403985
1.4843869
1.441201
1.4073933
1.3805695
1.3590352
1.3415684
1.3272713
1.3154718
1.3056589
1.2974386
1.2905034
1.2846107
22.691254
22.464709
21.690809
20.494236
18.373617
14.495872
10.252814
7.3037753
5.4102025
4.1804864
3.3920204
2.8168758
2.3638563
2.0575092
1.854654
1.7146659
1.6144665
1.5404625
1.4844515
1.4412658
1.4074579
1.3806338
1.359099
1.3416317
1.327334
1.3155338
1.3057203
1.2974994
1.2905636
1.2846703
22.6929
22.46666
21.694226
20.500272
18.385545
14.515046
10.268345
7.312481
5.4143239
4.1821842
3.3925942
2.816925
2.3638218
2.0575373
1.8547044
1.7147256
1.6145302
1.5405277
1.4845172
1.4413315
1.4075234
1.3806988
1.3591635
1.3416956
1.3273973
1.3155965
1.3057824
1.2975609
1.2906244
1.2847304
22.694544
22.46861
21.697643
20.506302
18.397457
14.534223
10.283928
7.3212243
5.4184611
4.1838873
3.3931674
2.8169716
2.3637887
2.0575686
1.8547569
1.7147869
1.6145952
1.540594
1.4845837
1.441398
1.4075895
1.3807645
1.3592286
1.3417601
1.3274612
1.3156598
1.305845
1.2976228
1.2906857
1.2847911
22.696185
22.470561
21.701057
20.512326
18.409354
14.553426
10.299572
7.330003
5.4226141
4.1855956
3.3937402
2.8170156
2.3637571
2.0576029
1.8548116
1.7148499
1.6146616
1.5406614
1.4846513
1.4414654
1.4076565
1.3808309
1.3592945
1.3418253
1.3275257
1.3157236
1.3059082
1.2976853
1.2907475
1.2848523
22.697824
22.472511
21.704471
20.518344
18.421237
14.572639
10.315269
7.3388188
5.426783
4.1873096
3.3943127
2.817057
2.3637271
2.0576403
1.8548684
1.7149145
1.6147293
1.5407299
1.4847198
1.4415336
1.4077243
1.3808981
1.3593609
1.3418911
1.3275908
1.315788
1.3059719
1.2977484
1.2908099
1.284914
22.699461
22.474461
21.707883
20.524357
18.433103
14.591862
10.331021
7.3476713
5.4309683
4.1890293
3.3948852
2.8170961
2.3636986
2.0576806
1.8549272
1.7149806
1.6147982
1.5407995
1.4847893
1.4416027
1.4077928
1.380966
1.3594281
1.3419576
1.3276566
1.3158531
1.3060363
1.297812
1.2908729
1.2849763
22.701096
22.476411
21.711294
20.530363
18.444953
14.61111
10.346834
7.3565601
5.4351699
4.1907549
3.3954575
2.8171328
2.3636716
2.0577238
1.8549879
1.7150483
1.6148684
1.5408701
1.4848597
1.4416726
1.4078621
1.3810345
1.359496
1.3420247
1.3277229
1.3159187
1.3061011
1.2978762
1.2909364
1.2850392
22.702728
22.478361
21.714703
20.536363
18.456789
14.630355
10.3627
7.3654873
5.4393875
4.1924864
3.3960299
2.8171675
2.3636461
2.0577698
1.8550505
1.7151174
1.6149398
1.5409419
1.4849311
1.4417434
1.4079322
1.3811039
1.3595645
1.3420924
1.3277899
1.3159849
1.3061667
1.297941
1.2910005
1.2851026
22.704357
22.480311
21.718112
20.542357
18.468609
14.649635
10.378621
7.3744501
5.4436222
4.194224
3.3966024
2.8172007
2.3636221
2.0578182
1.8551149
1.715188
1.6150123
1.5410146
1.4850033
1.441815
1.408003
1.3811739
1.3596337
1.3421608
1.3278575
1.3160517
1.3062327
1.2980063
1.2910651
1.2851665
22.705984
22.482261
21.72152
20.548345
18.480412
14.66891
10.394604
7.3834525
5.4478733
4.1959676
3.3971754
2.8172324
2.3635995
2.057869
1.855181
1.7152598
1.615086
1.5410883
1.4850765
1.4418874
1.4080747
1.3812447
1.3597036
1.3422299
1.3279257
1.3161192
1.3062995
1.2980723
1.2911304
1.2852311
22.707609
22.484212
21.724927
20.554328
18.4922
14.68821
10.410639
7.3924902
5.4521409
4.1977178
3.397749
2.8172629
2.3635782
2.0579218
1.8552486
1.7153329
1.6151608
1.541163
1.4851505
1.4419606
1.408147
1.3813161
1.3597742
1.3422996
1.3279946
1.3161873
1.3063667
1.2981388
1.2911962
1.2852962
22.709231
22.486162
21.728332
20.560304
18.503973
14.707517
10.426731
7.4015684
5.4564259
4.1994743
3.3983234
2.8172925
2.3635582
2.0579766
1.8553176
1.7154072
1.6152366
1.5412386
1.4852253
1.4420346
1.4082201
1.3813883
1.3598454
1.3423699
1.3280641
1.316256
1.3064346
1.298206
1.2912626
1.2853619
22.710851
22.488113
21.731737
20.566275
18.515729
14.726834
10.442884
7.4106824
5.4607278
4.2012377
3.3988988
2.8173213
2.3635394
2.058033
1.855388
1.7154827
1.6153134
1.5413151
1.485301
1.4421094
1.4082939
1.3814612
1.3599173
1.3424409
1.3281342
1.3163252
1.306503
1.2982737
1.2913295
1.2854281
22.712468
22.490063
21.735139
20.57224
18.527469
14.746173
10.459091
7.4198364
5.4650468
4.2030079
3.3994753
2.8173497
2.3635217
2.0580909
1.8554596
1.7155592
1.6153911
1.5413924
1.4853775
1.442185
1.4083685
1.3815347
1.3599899
1.3425126
1.3282049
1.3163951
1.3065721
1.298342
1.2913971
1.2854949
22.714083
22.492015
21.73854
20.578198
18.539194
14.765512
10.475354
7.4290282
5.469383
4.2047848
3.4000532
2.817378
2.363505
2.0581501
1.8555324
1.7156367
1.6154697
1.5414706
1.4854547
1.4422612
1.4084437
1.3816089
1.3600631
1.3425848
1.3282763
1.3164656
1.3066418
1.2984108
1.2914652
1.2855622
22.715695
22.493966
21.741939
20.58415
18.550902
14.784874
10.491678
7.4382587
5.4737369
4.2065689
3.4006328
2.8174064
2.3634892
2.0582103
1.8556061
1.7157151
1.6155492
1.5415496
1.4855328
1.4423383
1.4085196
1.3816839
1.360137
1.3426578
1.3283483
1.3165367
1.3067121
1.2984803
1.2915339
1.2856302
22.717304
22.495918
21.745336
20.590095
18.562594
14.804239
10.508057
7.4475287
5.4781082
4.2083603
3.4012143
2.817435
2.3634742
2.0582714
1.8556808
1.7157944
1.6156295
1.5416294
1.4856115
1.442416
1.4085963
1.3817594
1.3602116
1.3427313
1.3284209
1.3166084
1.3067829
1.2985503
1.2916031
1.2856987
22.71891
22.497871
21.748731
20.596035
18.57427
14.823618
10.524492
7.4568363
5.482497
4.2101591
3.401798
2.8174639
2.3634598
2.0583331
1.8557562
1.7158745
1.6157106
1.5417099
1.485691
1.4424944
1.4086736
1.3818357
1.3602868
1.3428055
1.3284941
1.3166807
1.3068544
1.298621
1.291673
1.2857678
22.720514
22.499823
21.752124
20.601969
18.58593
14.84301
10.540989
7.4661853
5.4869043
4.2119656
3.402384
2.8174934
2.3634459
2.0583953
1.8558323
1.7159553
1.6157924
1.5417911
1.4857712
1.4425735
1.4087515
1.3819125
1.3603626
1.3428803
1.3285679
1.3167536
1.3069264
1.2986922
1.2917434
1.2858375
22.722114
22.501776
21.755516
20.607897
18.597573
14.862407
10.557541
7.4755715
5.491329
4.2137797
3.4029724
2.8175238
2.3634326
2.0584578
1.8559089
1.7160367
1.6158748
1.541873
1.485852
1.4426532
1.4088302
1.38199
1.360439
1.3429557
1.3286423
1.3168271
1.306999
1.298764
1.2918144
1.2859077
22.723712
22.50373
21.758906
20.613819
18.6092
14.881821
10.574149
7.4849998
5.4957718
4.2156014
3.4035636
2.8175551
2.3634196
2.0585205
1.8559861
1.7161187
1.6159579
1.5419555
1.4859335
1.4427336
1.4089094
1.3820681
1.360516
1.3430317
1.3287173
1.3169012
1.3070722
1.2988363
1.2918859
1.2859785
22.725307
22.505684
21.762295
20.619735
18.620811
14.901239
10.590819
7.4944662
5.5002329
4.2174313
3.4041576
2.8175875
2.3634069
2.0585832
1.8560636
1.7162013
1.6160416
1.5420387
1.4860156
1.4428146
1.4089893
1.3821469
1.3605937
1.3431083
1.328793
1.3169759
1.307146
1.2989093
1.2919581
1.2860499
22.726898
22.507638
21.765682
20.625644
18.632406
14.920671
10.607545
7.5039736
5.5047124
4.2192693
3.4047548
2.8176211
2.3633944
2.0586458
1.8561414
1.7162843
1.6161258
1.5421224
1.4860983
1.4428961
1.4090697
1.3822262
1.3606719
1.3431855
1.3288692
1.3170511
1.3072204
1.2989828
1.2920307
1.2861217
22.728487
22.509593
21.769068
20.631547
18.643983
14.940111
10.624328
7.5135211
5.5092104
4.2211154
3.4053552
2.8176559
2.3633821
2.0587082
1.8562195
1.7163677
1.6162105
1.5422067
1.4861816
1.4429783
1.4091508
1.3823061
1.3607507
1.3432632
1.328946
1.317127
1.3072953
1.2990568
1.292104
1.2861942
22.730073
22.511548
21.772452
20.637443
18.655544
14.959558
10.641172
7.5231086
5.5137266
4.2229699
3.405959
2.8176923
2.36337
2.0587703
1.8562977
1.7164515
1.6162957
1.5422915
1.4862655
1.4430611
1.4092324
1.3823866
1.3608301
1.3433416
1.3290233
1.3172034
1.3073708
1.2991314
1.2921777
1.2862671
22.731656
22.513505
21.775835
20.643334
18.66709
14.979018
10.658074
7.532738
5.5182621
4.2248326
3.4065663
2.8177303
2.3633579
2.0588319
1.8563759
1.7165355
1.6163813
1.5423767
1.4863498
1.4431443
1.4093146
1.3824677
1.3609101
1.3434205
1.3291012
1.3172803
1.3074469
1.2992067
1.2922521
1.2863407
22.733236
22.515462
21.779218
20.649218
18.678618
14.998483
10.675032
7.5424065
5.5228162
4.226704
3.4071773
2.8177698
2.3633459
2.0588931
1.8564541
1.7166198
1.6164672
1.5424624
1.4864346
1.4432281
1.4093973
1.3825493
1.3609906
1.3434999
1.3291797
1.3173578
1.3075234
1.2992823
1.2923269
1.2864147
22.734813
22.517419
21.782599
20.655097
18.690129
15.017959
10.692051
7.552118
5.5273893
4.2285839
3.407792
2.817811
2.3633338
2.0589538
1.8565322
1.7167044
1.6165536
1.5425486
1.4865199
1.4433124
1.4094805
1.3826314
1.3610716
1.34358
1.3292587
1.3174359
1.3076006
1.2993586
1.2924023
1.2864893
22.736386
22.519378
21.78598
20.660969
18.701625
15.037442
10.70913
7.5618695
5.5319813
4.2304726
3.4084106
2.817854
2.3633219
2.0590139
1.8566103
1.716789
1.6166402
1.5426352
1.4866057
1.4433972
1.4095643
1.3827141
1.3611532
1.3436605
1.3293382
1.3175144
1.3076782
1.2994353
1.2924782
1.2865643
22.737957
22.521338
21.789359
20.666835
18.713104
15.056932
10.726264
7.5716632
5.5365927
4.23237
3.4090332
2.8178989
2.3633099
2.0590734
1.8566882
1.7168738
1.6167271
1.5427221
1.4866919
1.4434825
1.4096485
1.3827973
1.3612353
1.3437416
1.3294182
1.3175935
1.3077563
1.2995126
1.2925546
1.2866399
22.739524
22.523298
21.792736
20.672695
18.724565
15.076432
10.74346
7.5814987
5.5412237
4.234276
3.4096598
2.8179458
2.363298
2.0591322
1.8567659
1.7169587
1.6168143
1.5428094
1.4867785
1.4435682
1.4097331
1.3828809
1.3613179
1.3438231
1.3294988
1.317673
1.307835
1.2995903
1.2926315
1.2867159
22.741088
22.52526
21.796112
20.678548
18.73601
15.095936
10.760716
7.591375
5.5458736
4.2361914
3.4102906
2.8179947
2.3632861
2.0591903
1.8568434
1.7170437
1.6169017
1.542897
1.4868655
1.4436544
1.4098183
1.382965
1.361401
1.3439051
1.3295798
1.3177531
1.3079141
1.2996686
1.2927089
1.2867924
22.742649
22.527222
21.799486
20.684395
18.747439
15.11545
10.778028
7.6012949
5.5505438
4.2381155
3.4109255
2.8180455
2.3632742
2.0592477
1.8569206
1.7171287
1.6169894
1.542985
1.4869529
1.4437409
1.4099039
1.3830496
1.3614845
1.3439876
1.3296613
1.3178336
1.3079937
1.2997473
1.2927867
1.2868694
22.744207
22.529185
21.802858
20.690235
18.758851
15.134969
10.795402
7.6112557
5.5552335
4.2400486
3.4115646
2.8180985
2.3632624
2.0593044
1.8569975
1.7172137
1.6170772
1.5430732
1.4870406
1.4438279
1.4099899
1.3831346
1.3615685
1.3440706
1.3297433
1.3179147
1.3080738
1.2998265
1.292865
1.2869469
22.745762
22.531149
21.806228
20.69607
18.770245
15.154495
10.812836
7.6212603
5.5599433
4.241991
3.4122081
2.8181537
2.3632507
2.0593604
1.8570741
1.7172987
1.6171652
1.5431617
1.4871287
1.4439152
1.4100764
1.38322
1.3616529
1.3441541
1.3298257
1.3179962
1.3081543
1.2999061
1.2929438
1.2870248
22.747314
22.533114
21.809596
20.701898
18.781623
15.174028
10.830327
7.6313072
5.5646728
4.2439423
3.4128558
2.8182111
2.3632392
2.0594157
1.8571503
1.7173837
1.6172533
1.5432504
1.4872171
1.4440029
1.4101632
1.3833059
1.3617378
1.3442379
1.3299086
1.3180781
1.3082354
1.2999862
1.293023
1.2871032
22.748862
22.53508
21.812963
20.70772
18.792986
15.193565
10.847879
7.6413964
5.5694225
4.2459033
3.4135079
2.8182706
2.3632278
2.0594703
1.8572263
1.7174686
1.6173415
1.5433395
1.4873058
1.4440909
1.4102504
1.3833921
1.3618231
1.3443222
1.3299919
1.3181604
1.3083168
1.3000667
1.2931026
1.2871819
22.750407
22.537047
21.816328
20.713537
18.804329
15.21311
10.865492
7.65153
5.5741929
4.2478732
3.4141643
2.8183324
2.3632166
2.0595243
1.8573019
1.7175534
1.6174299
1.5434287
1.4873948
1.4441793
1.410338
1.3834788
1.3619088
1.344407
1.3300757
1.3182433
1.3083987
1.3001477
1.2931827
1.2872611
22.751949
22.539015
21.819691
20.719347
18.815656
15.232658
10.883164
7.6617054
5.5789834
4.2498527
3.4148252
2.8183966
2.3632056
2.0595776
1.8573771
1.7176381
1.6175183
1.5435181
1.4874841
1.4442681
1.410426
1.3835659
1.3619949
1.3444921
1.3301599
1.3183265
1.3084809
1.300229
1.2932632
1.2873407
22.753487
22.540984
21.823052
20.72515
18.826968
15.252212
10.900895
7.6719257
5.5837947
4.2518414
3.4154904
2.818463
2.3631949
2.0596302
1.8574521
1.7177228
1.6176069
1.5436077
1.4875737
1.4443571
1.4105143
1.3836533
1.3620814
1.3445776
1.3302444
1.3184101
1.3085636
1.3003108
1.293344
1.2874207
22.755022
22.542954
21.826412
20.730947
18.838262
15.271771
10.918687
7.6821895
5.5886263
4.2538395
3.41616
2.8185317
2.3631846
2.0596823
1.8575267
1.7178074
1.6176955
1.5436975
1.4876635
1.4444465
1.4106029
1.3837411
1.3621682
1.3446635
1.3303294
1.3184941
1.3086467
1.300393
1.2934253
1.287501
22.756553
22.544925
21.82977
20.736737
18.849539
15.291334
10.93654
7.6924965
5.5934793
4.2558475
3.416834
2.8186026
2.3631745
2.0597337
1.8576009
1.7178919
1.6177842
1.5437875
1.4877536
1.4445361
1.4106919
1.3838293
1.3622555
1.3447498
1.3304148
1.3185786
1.3087302
1.3004756
1.293507
1.2875818
22.758081
22.546898
21.833128
20.742521
18.860797
15.310901
10.954451
7.7028489
5.5983529
4.2578645
3.4175124
2.8186759
2.3631648
2.0597846
1.8576748
1.7179762
1.6178729
1.5438776
1.4878438
1.444626
1.4107812
1.3839177
1.3623431
1.3448365
1.3305005
1.3186633
1.308814
1.3005585
1.293589
1.2876629
22.759605
22.548871
21.836484
20.748298
18.872041
15.330471
10.972425
7.7132443
5.6032476
4.2598914
3.4181953
2.8187515
2.3631555
2.059835
1.8577485
1.7180605
1.6179617
1.5439679
1.4879344
1.4447162
1.4108707
1.3840065
1.362431
1.3449235
1.3305865
1.3187484
1.3088982
1.3006417
1.2936713
1.2877444
22.761125
22.550846
21.839839
20.75407
18.883267
15.350046
10.990457
7.7236856
5.6081635
4.2619278
3.4188825
2.8188294
2.3631466
2.0598849
1.8578218
1.7181447
1.6180506
1.5440584
1.4880251
1.4448067
1.4109606
1.3840956
1.3625193
1.3450108
1.3306729
1.3188339
1.3089827
1.3007253
1.293754
1.2878262
22.762642
22.552823
21.843192
20.759836
18.894475
15.369623
11.00855
7.7341716
5.6131007
4.263974
3.4195742
2.8189095
2.3631382
2.0599343
1.8578948
1.7182288
1.6181394
1.544149
1.488116
1.4448974
1.4110508
1.3841851
1.3626078
1.3450985
1.3307597
1.3189197
1.3090676
1.3008093
1.2938371
1.2879084
22.764156
22.554801
21.846545
20.765596
18.905665
15.389203
11.026704
7.7447017
5.6180598
4.2660297
3.4202703
2.818992
2.3631303
2.0599834
1.8579676
1.7183128
1.6182284
1.5442397
1.4882071
1.4449884
1.4111412
1.3842748
1.3626967
1.3451865
1.3308467
1.3190059
1.3091528
1.3008936
1.2939204
1.2879908
22.765666
22.55678
21.849896
20.771349
18.916841
15.408785
11.044917
7.7552786
5.6230398
4.2680952
3.4209707
2.8190768
2.3631229
2.0600321
1.8580401
1.7183968
1.6183174
1.5443306
1.4882985
1.4450796
1.4112319
1.3843648
1.3627859
1.3452748
1.3309341
1.3190923
1.3092384
1.3009782
1.2940042
1.2880736
22.767172
22.558761
21.853246
20.777096
18.927998
15.428369
11.063192
7.7658995
5.628042
4.2701704
3.4216755
2.8191639
2.3631162
2.0600804
1.8581124
1.7184807
1.6184065
1.5444217
1.48839
1.445171
1.4113229
1.384455
1.3628754
1.3453634
1.3310218
1.3191791
1.3093242
1.3010631
1.2940881
1.2881567
22.768674
22.560744
21.856594
20.782836
18.939137
15.447955
11.081525
7.776567
5.6330657
4.2722553
3.4223846
2.8192532
2.3631101
2.0601285
1.8581845
1.7185646
1.6184956
1.5445128
1.4884818
1.4452627
1.4114141
1.3845456
1.3629651
1.3454523
1.3311099
1.3192662
1.3094104
1.3011484
1.2941725
1.2882401
22.770173
22.562729
21.85994
20.788569
18.950259
15.467541
11.099922
7.787281
5.6381117
4.2743503
3.4230982
2.8193448
2.3631046
2.0601763
1.8582565
1.7186484
1.6185849
1.5446041
1.4885737
1.4453545
1.4115056
1.3846364
1.3630552
1.3455415
1.3311981
1.3193536
1.3094969
1.3012339
1.2942571
1.2883238
22.771669
22.564715
21.863285
20.794296
18.961366
15.487129
11.118377
7.7980396
5.6431797
4.2764549
3.4238161
2.8194387
2.3630999
2.0602239
1.8583283
1.7187322
1.6186742
1.5446956
1.4886658
1.4454466
1.4115973
1.3847275
1.3631455
1.3456309
1.3312867
1.3194412
1.3095836
1.3013197
1.294342
1.2884078
22.77316
22.566703
21.866627
20.800016
18.972453
15.506717
11.136891
7.8088465
5.6482697
4.2785697
3.4245383
2.819535
2.3630959
2.0602714
1.8584001
1.7188161
1.6187636
1.5447872
1.4887582
1.445539
1.4116893
1.3848188
1.3632361
1.3457207
1.3313756
1.3195292
1.3096706
1.3014058
1.2944271
1.288492
22.774648
22.568692
21.869967
20.805731
18.983523
15.526306
11.155469
7.819699
5.6533823
4.280694
3.4252649
2.8196335
2.3630927
2.0603188
1.8584717
1.7189
1.6188531
1.544879
1.4888507
1.4456316
1.4117815
1.3849105
1.3633269
1.3458107
1.3314647
1.3196174
1.309758
1.3014922
1.2945126
1.2885765
22.776132
22.570683
21.873305
20.81144
18.994577
15.545895
11.174105
7.8305983
5.6585172
4.2828289
3.4259959
2.8197342
2.3630903
2.0603662
1.8585433
1.7189839
1.6189427
1.544971
1.4889435
1.4457244
1.411874
1.3850023
1.3634181
1.345901
1.3315542
1.3197059
1.3098455
1.3015789
1.2945983
1.2886613
22.777613
22.572676
21.876641
20.817142
19.005613
15.565483
11.192801
7.841546
5.6636752
4.2849734
3.4267312
2.8198372
2.3630888
2.0604135
1.858615
1.7190679
1.6190325
1.5450631
1.4890364
1.4458175
1.4119667
1.3850945
1.3635095
1.3459916
1.3316439
1.3197947
1.3099334
1.3016658
1.2946843
1.2887463
22.779089
22.57467
21.879976
20.822839
19.016631
15.58507
11.211558
7.8525393
5.6688554
4.2871281
3.4274709
2.8199427
2.3630882
2.0604609
1.8586867
1.719152
1.6191224
1.5451555
1.4891296
1.4459108
1.4120597
1.385187
1.3636012
1.3460825
1.3317339
1.3198838
1.3100215
1.301753
1.2947706
1.2888317
22.780562
22.576666
21.883309
20.828528
19.027632
15.604655
11.230376
7.8635818
5.6740591
4.2892929
3.4282149
2.8200504
2.3630886
2.0605084
1.8587584
1.7192361
1.6192125
1.545248
1.489223
1.4460043
1.412153
1.3852796
1.3636932
1.3461737
1.3318241
1.3199732
1.31011
1.3018405
1.2948572
1.2889173
22.782032
22.578663
21.88664
20.834211
19.038616
15.62424