/*--------------------------------*- C++ -*----------------------------------*\
| =========                 |                                                 |
| \\      /  F ield         | OpenFOAM: The Open Source CFD Toolbox           |
|  \\    /   O peration     | Version:  v2012                                 |
|   \\  /    A nd           | Website:  www.openfoam.com                      |
|    \\/     M anipulation  |                                                 |
\*---------------------------------------------------------------------------*/
FoamFile
{
    version     2.0;
    format      ascii;
    class       volScalarField;
    location    "400";
    object      T;
}
// * * * * * * * * * * * * * * * * * * * * * * * * * * * * * * * * * * * * * //

dimensions      [0 0 0 1 0 0 0];


internalField   nonuniform List<scalar> 
24000
(
42.51778
42.652882
43.172319
44.1866
46.796782
54.637346
69.945551
91.418759
118.13829
148.83806
180.20051
214.92202
256.02848
294.86494
327.83879
355.21292
377.72385
396.21812
411.42948
423.95315
434.28182
442.82524
449.91656
455.82393
460.76308
464.90809
468.40002
471.3537
473.8629
476.00444
42.516999
42.651982
43.170452
44.182457
46.78129
54.575127
69.829555
91.267122
117.95102
148.6366
179.98884
214.6811
255.76823
294.61032
327.59867
354.98833
377.51381
396.02042
411.24164
423.77264
434.10635
442.65298
449.74617
455.65456
460.59424
464.73953
468.23169
471.18563
473.69517
475.83716
42.516198
42.65107
43.168462
44.177407
46.763086
54.518926
69.738994
91.165466
117.83727
148.52519
179.88582
214.57156
255.64317
294.47805
327.46642
354.85822
377.3867
395.89637
411.12076
423.65509
433.99188
442.54099
449.63598
455.54554
460.48592
464.63163
468.12406
471.07823
473.58801
475.73029
42.515395
42.650121
43.166333
44.172081
46.745225
54.466012
69.656527
91.077629
117.73825
148.43691
179.81781
214.5159
255.5808
294.41312
327.40921
354.81286
377.35405
395.87464
411.10619
423.64471
433.98359
442.53356
449.62882
455.53842
460.47881
464.62454
468.11701
471.07123
473.58106
475.72336
42.51459
42.649152
43.164144
44.166654
46.727575
54.414718
69.57803
90.990458
117.65002
148.36496
179.76994
214.4869
255.54997
294.37445
327.36762
354.76984
377.30986
395.82994
411.06233
423.6019
433.94171
442.49242
449.58818
455.49812
460.43871
464.58458
468.07716
471.03146
473.54139
475.6838
42.513786
42.648168
43.161927
44.161212
46.710175
54.364322
69.501436
90.903408
117.56763
148.30209
179.73368
214.47441
255.54188
294.36052
327.35106
354.75242
377.29255
395.81315
411.04595
423.58563
433.92534
442.4758
449.57128
455.48097
460.42136
464.56709
468.05958
471.01384
473.52377
475.66623
42.512982
42.647177
43.159699
44.155778
46.692945
54.31446
69.425285
90.817315
117.48869
148.24435
179.70395
214.47112
255.54595
294.35876
327.34516
354.74356
377.28164
395.80077
411.03242
423.57116
433.9101
442.45995
449.55496
455.46428
460.40441
464.54994
468.04232
470.99653
473.50645
475.64894
42.51218
42.64618
43.157467
44.150372
46.675844
54.26494
69.349141
90.732102
117.41177
148.1896
179.67813
214.47341
255.55748
294.36472
327.34642
354.74116
377.27652
395.79365
411.02373
423.56119
433.89911
442.44816
449.54255
455.4514
460.39118
464.53647
468.02869
470.98281
473.4927
475.63521
42.511377
42.645181
43.155236
44.144982
46.658865
54.215688
69.272985
90.647379
117.33599
148.1366
179.65462
214.47905
255.57342
294.37513
327.35172
354.74227
377.27439
395.78905
411.01721
423.55314
433.88985
442.43797
449.53165
455.43997
460.37936
464.52438
468.01642
470.97045
473.4803
475.62283
42.510576
42.644181
43.153006
44.139607
46.641975
54.166635
69.196826
90.562913
117.26088
148.08463
179.63253
214.48679
255.59209
294.38829
327.35951
354.74557
377.27416
395.78613
411.01217
423.54641
433.8818
442.42891
449.52181
455.42955
460.36852
464.51325
468.00509
470.95901
473.46882
475.61135
42.509775
42.643181
43.150778
44.134253
46.625164
54.117751
69.120634
90.47856
117.18612
148.03327
179.61136
214.49589
255.61244
294.40309
327.36879
354.75015
377.27502
395.78412
411.00791
423.54036
433.87436
442.42039
449.51249
455.41963
460.35815
464.50257
467.99422
470.94802
473.45778
475.60032
42.508976
42.64218
43.148552
44.128913
46.608435
54.069032
69.044428
90.39423
117.11151
147.98227
179.59079
214.50589
255.63388
294.41892
327.37894
354.75548
377.27651
395.78265
411.0041
423.5347
433.86726
442.41219
449.50345
455.40996
460.34804
464.49214
467.98357
470.93725
473.44696
475.58952
42.508177
42.64118
43.146329
44.123587
46.591776
54.020436
68.968196
90.309862
117.03697
147.93147
179.57062
214.51651
255.65602
294.43535
327.38961
354.76123
377.27834
395.78144
411.00051
423.52921
433.8603
442.4041
449.4945
455.40039
460.338
464.48178
467.973
470.92656
473.43622
475.57878
42.507379
42.64018
43.144108
44.118272
46.575183
53.971981
68.89193
90.225419
116.96241
147.88078
179.55073
214.52759
255.67861
294.45214
327.40055
354.7672
377.28034
395.78037
410.99702
423.5238
433.8534
442.39605
449.48559
455.39083
460.32798
464.47143
467.96243
470.91586
473.42547
475.56803
42.506582
42.63918
43.141891
44.112968
46.558655
53.923644
68.815655
90.140872
116.88779
147.83014
179.53105
214.53902
255.70151
294.46912
327.41161
354.77323
377.28237
395.7793
410.99351
423.51836
433.84645
442.38796
449.47663
455.38122
460.31789
464.46101
467.95179
470.90509
473.41465
475.55722
42.505786
42.63818
43.139678
44.107686
46.542192
53.875423
68.739345
90.056205
116.81307
147.77949
179.51152
214.55072
255.72461
294.48618
327.42267
354.77924
377.28437
395.77819
410.98995
423.51285
433.83943
442.37978
449.46757
455.37151
460.30771
464.45049
467.94106
470.89423
473.40373
475.54631
42.50499
42.637181
43.137471
44.102415
46.525794
53.827334
68.663014
89.971405
116.73824
147.72882
179.49211
214.56263
255.74783
294.50322
327.43366
354.78515
377.28625
395.77695
410.98626
423.50722
433.83228
442.37147
449.45839
455.36168
460.2974
464.43985
467.9302
470.88324
473.39269
475.53528
42.504196
42.636181
43.135267
44.097154
46.509449
53.779344
68.586665
89.886458
116.66327
147.6781
179.4728
214.57475
255.77112
294.5202
327.44452
354.79093
377.28801
395.7756
410.98246
423.50148
433.82502
442.36305
449.44909
455.35173
460.28697
464.42909
467.91921
470.87212
473.38152
475.52412
42.503403
42.635182
43.133065
44.091908
46.493172
53.731483
68.510283
89.80136
116.58816
147.62731
179.45357
214.58703
255.79443
294.53705
327.4552
354.79651
377.28958
395.77407
410.97849
423.49556
433.8176
442.35447
449.43964
455.34162
460.27639
464.41817
467.90807
470.86086
473.3702
475.51281
42.502611
42.634184
43.130865
44.086674
46.476957
53.68373
68.433897
89.716104
116.5129
147.57646
179.43441
214.59946
255.81774
294.55373
327.46566
354.80187
377.29093
395.77234
410.97433
423.48948
433.81002
442.34574
449.43003
455.33136
460.26566
464.40711
467.89679
470.84945
473.35874
475.50136
42.50182
42.633186
43.128666
44.081449
46.46079
53.636085
68.357485
89.630685
116.43748
147.52553
179.41532
214.61203
255.84102
294.5702
327.47585
354.80697
377.29204
395.77037
410.96995
423.48318
433.80223
442.33681
449.42024
455.32092
460.25475
464.39587
467.88534
470.83787
473.34711
475.48974
42.50103
42.632189
43.12647
44.076234
46.444694
53.588569
68.281051
89.545099
116.3619
147.47451
179.39629
214.62475
255.86425
294.58646
327.48577
354.81179
377.2929
395.7682
410.96539
423.47672
433.79429
442.32773
449.41029
455.31033
460.24369
464.38448
467.87373
470.82614
473.33533
475.47796
42.500241
42.631192
43.124275
44.071029
46.428656
53.541149
68.204615
89.459341
116.28615
147.42341
179.37732
214.63761
255.8874
294.60244
327.49536
354.8163
377.29347
395.76575
410.96057
423.47002
433.78612
442.31844
449.40015
455.29956
460.23245
464.37291
467.86195
470.81424
473.32338
475.46602
42.499453
42.630196
43.122082
44.065843
46.41267
53.493859
68.128154
89.373409
116.21024
147.37221
179.35842
214.65061
255.91047
294.61812
327.50461
354.82047
377.29375
395.76304
410.95552
423.46311
433.77776
442.30896
449.38983
455.2886
460.22104
464.36118
467.85
470.80217
473.31126
475.45392
42.498666
42.629199
43.119891
44.060668
46.396745
53.446675
68.051686
89.287302
116.13414
147.32091
179.33959
214.66376
255.93343
294.63348
327.51347
354.82428
377.29369
395.76003
410.9502
423.45595
433.76917
442.29927
449.3793
455.27745
460.20943
464.34926
467.83787
470.78992
473.29896
475.44163
42.49788
42.628202
43.117702
44.055503
46.380882
53.3996
67.975212
89.201013
116.05788
147.26952
179.32083
214.67707
255.95628
294.64849
327.52193
354.82772
377.29331
395.75675
410.94464
423.44858
433.76038
442.28939
449.3686
455.26613
460.19766
464.33717
467.82558
470.7775
473.2865
475.42918
42.497095
42.627205
43.115514
44.050352
46.365073
53.352655
67.898718
89.114542
115.98144
147.21803
179.30215
214.69055
255.97899
294.6631
327.52995
354.83074
377.29255
395.75313
410.93878
423.44094
433.75135
442.27929
449.35768
455.25461
460.18569
464.32489
467.8131
470.7649
473.27386
475.41655
42.496312
42.626209
43.113329
44.045213
46.349317
53.305805
67.822234
89.027888
115.90482
147.16644
179.28355
214.70421
256.00156
294.67729
327.53749
354.83333
377.29141
395.74918
410.93263
423.43304
433.74208
442.26897
449.34656
455.24289
460.17354
464.31243
467.80044
470.75213
473.26104
475.40375
42.495529
42.625212
43.111145
44.040083
46.333626
53.259089
67.745739
88.941043
115.82802
147.11474
179.26502
214.71807
256.02395
294.691
327.54451
354.83544
377.28986
395.74487
410.92616
423.42485
433.73255
442.2584
449.33521
455.23095
460.16117
464.29977
467.78758
470.73916
473.24803
475.39075
42.494748
42.624215
43.108963
44.034963
46.317996
53.21248
67.669234
88.854011
115.75104
147.06293
179.24659
214.73216
256.04617
294.7042
327.55099
354.83708
377.2879
395.74021
410.91939
423.4164
433.72278
442.24762
449.32366
455.21882
460.14863
464.28692
467.77454
470.72601
473.23484
475.37758
42.493969
42.623219
43.106782
44.029852
46.302409
53.16598
67.592746
88.766786
115.67387
147.01101
179.22825
214.7465
256.06818
294.71684
327.55687
354.8382
377.28548
395.73515
410.91227
423.40764
433.71274
442.23659
449.31187
455.20647
460.13586
464.27387
467.7613
470.71267
473.22146
475.36422
42.493191
42.622222
43.104605
44.024757
46.28689
53.119613
67.516248
88.679365
115.59652
146.95897
179.21001
214.76112
256.08998
294.72886
327.56213
354.83877
377.2826
395.7297
410.90481
423.39858
433.70242
442.2253
449.29985
455.1939
460.12289
464.26062
467.74786
470.69913
473.20788
475.35066
42.492414
42.621225
43.102432
44.019676
46.271432
53.07334
67.439757
88.59175
115.51898
146.90683
179.19186
214.77607
256.11153
294.74019
327.56672
354.83878
377.27923
395.72382
410.89698
423.38919
433.69181
442.21374
449.28757
455.18109
460.10969
464.24714
467.73421
470.68538
473.1941
475.33689
42.491639
42.620228
43.100262
44.014604
46.256021
53.027205
67.36328
88.503933
115.44126
146.85455
179.1738
214.79138
256.13283
294.75078
327.57062
354.83823
377.2754
395.71755
410.88882
423.37951
433.68094
442.20195
449.27508
455.16807
460.09628
464.23347
467.72037
470.67144
473.18012
475.32294
42.490865
42.619234
43.098097
44.009546
46.240667
52.981177
67.286801
88.415913
115.36334
146.80214
179.15583
214.80711
256.15387
294.76053
327.57379
354.83709
377.27106
395.71085
410.88026
423.36948
433.66975
442.18988
449.26232
455.1548
460.08265
464.21958
467.70631
470.65729
473.16594
475.30878
42.490092
42.618239
43.095934
44.004501
46.225377
52.93526
67.210343
88.327688
115.28524
146.74958
179.13793
214.82331
256.17463
294.76937
327.57623
354.83536
377.26623
395.70372
410.87134
423.35913
433.65828
442.17753
449.24932
455.14131
460.06879
464.20547
467.69204
470.64293
473.15155
475.29442
42.48932
42.617244
43.093773
43.999465
46.21014
52.889475
67.133899
88.239253
115.20695
146.69688
179.12008
214.84001
256.1951
294.77721
327.57793
354.83304
377.2609
395.69615
410.86203
423.34842
433.64647
442.16489
449.23604
455.12754
460.05468
464.19112
467.67753
470.62834
473.13694
475.27982
42.48855
42.616249
43.091614
43.994438
46.194949
52.843786
67.057461
88.150608
115.12847
146.64402
179.10226
214.85723
256.21529
294.78403
327.57896
354.8302
377.25514
395.6882
410.85238
423.33741
433.63441
442.152
449.22252
455.11356
460.04036
464.17656
467.66282
470.61355
473.12212
475.26503
42.487781
42.615253
43.089456
43.989421
46.179826
52.798237
66.981059
88.06175
115.0498
146.59101
179.08446
214.87495
256.23516
294.78982
327.57933
354.82684
377.24892
395.67985
410.84237
423.32607
433.62202
442.13881
449.20872
455.09931
460.02578
464.16175
467.64787
470.59852
473.10708
475.25002
42.487013
42.614258
43.0873
43.984414
46.164763
52.752793
66.904672
87.972672
114.97094
146.53783
179.06667
214.89312
256.25472
294.79463
327.57914
354.82303
377.24232
395.67115
410.83202
423.31441
433.60935
442.12535
449.19467
455.08482
460.01097
464.14672
467.6327
470.58328
473.09182
475.23478
42.486247
42.613262
43.085147
43.979426
46.149742
52.707464
66.828302
87.883376
114.89189
146.48448
179.04886
214.91166
256.27396
294.79854
327.57845
354.81881
377.23535
395.6621
410.82134
423.30244
433.59636
442.1116
449.18034
455.07006
459.9959
464.13144
467.61728
470.56779
473.07632
475.21931
42.485482
42.612266
43.082994
43.974448
46.134781
52.662265
66.751978
87.793851
114.81267
146.43096
179.03103
214.93049
256.2929
294.80171
327.57738
354.81428
377.22811
395.65278
410.81042
423.29023
433.58315
442.09763
449.16579
455.05508
459.98061
464.11594
467.60166
470.5521
473.06061
475.20363
42.484718
42.61127
43.080844
43.969481
46.119885
52.617163
66.675643
87.704149
114.73325
146.37726
179.01315
214.94947
256.31154
294.80427
327.576
354.80946
377.22059
395.64319
410.7992
423.27773
433.56966
442.08338
449.15097
455.03984
459.96508
464.1002
467.58579
470.53617
473.04467
475.18771
42.483956
42.610273
43.078695
43.964528
46.105036
52.572205
66.599282
87.614308
114.65366
146.32339
178.99522
214.96849
256.3299
294.80642
327.5744
354.80444
377.21285
395.63337
410.78776
423.265
433.55593
442.06889
449.13592
455.02438
459.94931
464.08424
467.5697
470.52001
473.0285
475.17158
42.483195
42.609277
43.076549
43.959585
46.090234
52.527349
66.522913
87.524331
114.57389
146.26934
178.97721
214.98741
256.34801
294.80832
327.57266
354.79924
377.20492
395.62333
410.77607
423.252
433.54193
442.05414
449.1206
455.00864
459.93329
464.06801
467.55335
470.50361
473.01208
475.15519
42.482435
42.608279
43.074404
43.954651
46.075502
52.482613
66.446509
87.434214
114.49393
146.2151
178.95909
215.00613
256.36591
294.81017
327.57087
354.79395
377.19687
395.61314
410.76422
423.23884
433.52775
442.03919
449.10509
454.99271
459.91706
464.05158
467.5368
470.48699
472.99546
475.1386
42.481677
42.607282
43.07226
43.949727
46.060824
52.438006
66.370088
87.343961
114.41378
146.16067
178.94085
215.02457
256.38364
294.8121
327.56907
354.78858
377.18868
395.60279
410.75216
423.22545
433.51334
442.024
449.08932
454.97653
459.90058
464.03491
467.52
470.47014
472.9786
475.12177
42.48092
42.606284
43.070119
43.944812
46.046189
52.393496
66.293655
87.25357
114.33346
146.10604
178.92247
215.04264
256.40124
294.81424
327.56731
354.78318
377.18041
395.5923
410.73996
423.21188
433.49873
442.00861
449.07335
454.96013
459.88388
464.01801
467.50298
470.45306
472.96151
475.10472
42.480165
42.605286
43.06798
43.939912
46.031613
52.349137
66.217191
87.163042
114.25294
146.05121
178.90391
215.06031
256.41875
294.81668
327.56562
354.77774
377.17205
395.58168
410.72758
423.19812
433.48391
441.99299
449.05713
454.94349
459.86694
464.00087
467.48572
470.43573
472.94418
475.08742
42.479411
42.604287
43.065846
43.935026
46.017102
52.304879
66.140715
87.072376
114.17224
145.99619
178.88516
215.07754
256.43622
294.81952
327.56407
354.77234
377.16366
395.571
410.7151
423.18424
433.46894
441.97721
449.04075
454.92667
459.84981
463.98353
467.46825
470.41821
472.92664
475.06992
42.478659
42.603288
43.063713
43.93015
46.002636
52.260746
66.064227
86.981573
114.09135
145.94094
178.8662
215.09432
256.45366
294.82278
327.56265
354.76696
377.15521
395.5602
410.70248
423.17018
433.45379
441.96122
449.02415
454.90962
459.83245
463.96596
467.45055
470.40045
472.90887
475.05218
42.477909
42.602288
43.061585
43.925289
45.988215
52.21674
65.987709
86.890633
114.01027
145.88548
178.84701
215.11064
256.47112
294.82651
327.56139
354.76162
377.14674
395.54933
410.68975
423.15598
433.43847
441.94506
449.00737
454.89238
459.81489
463.94818
467.43265
470.38248
472.8909
475.03424
42.477161
42.601288
43.059461
43.920438
45.973865
52.172835
65.911183
86.799555
113.929
145.82978
178.82758
215.12651
256.48861
294.8307
327.56029
354.75632
377.13823
395.53837
410.67688
423.14162
433.42296
441.9287
448.99037
454.87492
459.7971
463.93018
467.41451
470.36428
472.87268
475.01607
42.476415
42.600288
43.057339
43.915596
45.959567
52.12908
65.834644
86.708343
113.84755
145.77385
178.80787
215.14195
256.50617
294.83538
327.5594
354.75112
377.12974
395.52738
410.66395
423.12718
433.40735
441.9122
448.97322
454.8573
459.77914
463.91199
467.39619
470.34589
472.85428
474.9977
42.475671
42.599286
43.055219
43.910763
45.94531
52.085425
65.758077
86.616992
113.76589
145.71768
178.78788
215.15696
256.52382
294.84054
327.55872
354.74599
377.12123
395.51631
410.6509
423.11258
433.39156
441.89552
448.95587
454.83947
459.76097
463.89359
467.37765
470.32728
472.83567
474.97912
42.474928
42.598286
43.0531
43.90594
45.931109
52.041904
65.681506
86.525508
113.68405
145.66128
178.76758
215.17157
256.54158
294.84618
327.55826
354.74095
377.11274
395.50521
410.63778
423.09787
433.37564
441.87868
448.93836
454.82146
459.74262
463.875
467.35892
470.30848
472.81685
474.96034
42.474187
42.597285
43.050983
43.901126
45.916975
51.998503
65.604922
86.433885
113.60202
145.60462
178.74697
215.18576
256.55947
294.8523
327.55805
354.73602
377.10426
395.49405
410.62455
423.08303
433.35956
441.86167
448.92065
454.80325
459.72405
463.8562
467.33997
470.28945
472.79782
474.94134
42.473447
42.596284
43.048868
43.896331
45.902885
51.955212
65.528312
86.342129
113.51979
145.54772
178.72604
215.19957
256.57749
294.85891
327.55809
354.73122
377.09583
395.48289
410.61129
423.06812
433.34339
441.84455
448.90282
454.7849
459.70534
463.83724
467.32085
470.27026
472.77861
474.92217
42.472709
42.595282
43.046755
43.891545
45.888835
51.912066
65.451699
86.250236
113.43737
145.49057
178.70478
215.213
256.59563
294.86597
327.55837
354.72652
377.08741
395.47168
410.59793
423.0531
433.32708
441.82726
448.88482
454.76637
459.68643
463.81808
467.30154
470.25087
472.75921
474.90281
42.471973
42.594279
43.044643
43.886771
45.874855
51.86902
65.375075
86.15821
113.35475
145.43317
178.68321
215.22608
256.61387
294.87345
327.55888
354.72193
377.07903
395.46045
410.58452
423.03798
433.31066
441.80985
448.86667
454.74768
459.66736
463.79875
467.28205
470.23131
472.73963
474.88326
42.471238
42.593276
43.042534
43.882011
45.860929
51.826117
65.298427
86.066048
113.27195
145.37553
178.66133
215.23882
256.63221
294.8813
327.55961
354.71744
377.07066
395.44918
410.57102
423.02275
433.29409
441.79228
448.84834
454.72881
459.6481
463.77923
467.26237
470.21154
472.71985
474.86352
42.470505
42.592272
43.040426
43.87726
45.847044
51.783327
65.221777
85.973753
113.18895
145.31765
178.63914
215.25124
256.65064
294.88952
327.56058
354.71309
377.06235
395.43792
410.5575
423.00746
433.27745
441.77461
448.82991
454.70982
459.62871
463.75957
467.24254
470.19163
472.69991
474.84362
42.469773
42.591268
43.03832
43.872518
45.833206
51.740656
65.145118
85.881325
113.10575
145.25953
178.61664
215.26335
256.66913
294.89805
327.56176
354.70883
377.05406
395.42663
410.54391
422.99208
433.26069
441.75681
448.81133
454.69066
459.60915
463.73973
467.22253
470.17153
472.6798
474.82355
42.469044
42.590262
43.036215
43.867784
45.819439
51.698124
65.068437
85.788761
113.02236
145.20115
178.59386
215.27517
256.68767
294.90687
327.56314
354.70468
377.04581
395.41532
410.53027
422.97662
433.24383
441.73889
448.79261
454.67137
459.58944
463.71974
467.20237
470.15128
472.65953
474.80331
42.468316
42.589256
43.034113
43.86306
45.805716
51.655694
64.991754
85.696067
112.93878
145.14255
178.57079
215.2867
256.70624
294.91594
327.5647
354.70063
377.03758
395.40399
410.51656
422.96106
433.22685
441.72083
448.77375
454.65191
459.56956
463.69958
467.18203
470.13085
472.63908
474.7829
42.467589
42.58825
43.032012
43.858347
45.792034
51.613412
64.915067
85.603238
112.855
145.08373
178.54744
215.29795
256.72483
294.92527
327.56647
354.6967
377.02942
395.39268
410.50284
422.94547
433.20982
441.7027
448.7548
454.63236
459.54958
463.6793
467.16157
470.1103
472.6185
474.76236
42.466865
42.587242
43.029915
43.853651
45.778408
51.571238
64.83836
85.510279
112.77103
145.02467
178.52382
215.30892
256.74341
294.9348
327.56839
354.69285
377.02128
395.38134
410.48906
422.92979
433.19267
441.68445
448.73571
454.61266
459.52945
463.65887
467.14095
470.08958
472.59776
474.74166
42.466142
42.586233
43.027821
43.848964
45.764846
51.529194
64.761651
85.417186
112.68686
144.96539
178.49993
215.31963
256.76197
294.94451
327.57048
354.6891
377.01318
395.37
410.47525
422.91405
433.17546
441.6661
448.71652
454.59285
459.50919
463.63831
467.1202
470.06873
472.57689
474.72082
42.465421
42.585224
43.025729
43.844291
45.751325
51.48728
64.684939
85.323963
112.6025
144.90587
178.47579
215.33007
256.78048
294.95437
327.57271
354.68543
377.0051
395.35863
410.46137
422.89822
433.15813
441.64763
448.6972
454.57289
459.48878
463.6176
467.09929
470.04773
472.55586
474.69983
42.464702
42.584214
43.023642
43.839629
45.737843
51.445478
64.608211
85.230608
112.51794
144.84614
178.45139
215.34025
256.79894
294.96437
327.57508
354.68185
376.99707
395.34729
410.4475
422.88238
433.14076
441.62911
448.6778
454.55286
459.46829
463.59679
467.07829
470.02662
472.53472
474.67873
42.463985
42.583206
43.021558
43.834976
45.724429
51.403819
64.531482
85.137122
112.43318
144.78619
178.42675
215.35016
256.81733
294.97448
327.57756
354.67834
376.98906
395.33592
410.43356
422.86645
433.1233
441.61047
448.65829
454.5327
459.44766
463.57584
467.05714
470.00537
472.51345
474.65749
42.463269
42.582196
43.019476
43.830331
45.711067
51.362266
64.454751
85.043506
112.34822
144.72601
178.40187
215.35982
256.83562
294.98469
327.58016
354.6749
376.98108
395.32455
410.41961
422.85048
433.10577
441.59176
448.63869
454.51244
459.42693
463.55479
467.03588
469.984
472.49205
474.63613
42.462555
42.581185
43.017396
43.825696
45.697744
51.320856
64.37801
84.949758
112.26306
144.66563
178.37675
215.36923
256.85381
294.99496
327.58283
354.67151
376.9731
395.31315
410.40559
422.83442
433.08814
441.57294
448.61896
454.49205
459.40606
463.53359
467.01449
469.9625
472.47052
474.61464
42.461843
42.580174
43.015318
43.821069
45.684463
51.279565
64.301267
84.855884
112.17771
144.60501
178.3514
215.37838
256.8719
295.00529
327.58561
354.6682
376.96518
395.30178
410.39158
422.81836
433.0705
441.55408
448.59919
454.4716
459.38513
463.51233
466.99301
469.94091
472.4489
474.59306
42.461133
42.579161
43.013241
43.816454
45.671255
51.238396
64.224525
84.761877
112.09215
144.54419
178.32582
215.38729
256.88986
295.01566
327.58846
354.66493
376.95727
395.29038
410.37752
422.80223
433.05276
441.53512
448.57931
454.45104
459.36408
463.49095
466.97141
469.9192
472.42717
474.57136
42.460425
42.578148
43.011166
43.811855
45.658089
51.197367
64.147779
84.667744
112.0064
144.48315
178.30002
215.39595
256.9077
295.02606
327.59136
354.66171
376.94938
395.27898
410.36343
422.78605
433.03497
441.5161
448.55936
454.43041
459.34295
463.46947
466.94973
469.8974
472.40534
474.54956
42.459719
42.577133
43.009093
43.807264
45.644963
51.156448
64.071031
84.573481
111.92044
144.4219
178.27399
215.40437
256.92539
295.03645
327.59431
354.6585
376.94147
395.26755
410.34929
422.7698
433.01709
441.49698
448.5393
454.40965
459.3217
463.44788
466.92791
469.87548
472.38338
474.52764
42.459016
42.576118
43.007022
43.802689
45.631884
51.115674
63.994287
84.47909
111.83428
144.36043
178.24775
215.41255
256.94295
295.04686
327.59731
354.65535
376.93361
395.25614
410.33516
422.75355
432.9992
441.47783
448.51921
454.38885
459.30039
463.42622
466.90604
469.85348
472.36135
474.50566
42.458314
42.575101
43.004953
43.798123
45.618875
51.075013
63.917546
84.384572
111.74792
144.29874
178.2213
215.4205
256.96035
295.05724
327.60033
354.65221
376.92574
395.24469
410.32097
422.73722
432.98122
441.45859
448.49901
454.36795
459.27898
463.40446
466.88406
469.83138
472.33922
474.48356
42.457615
42.574083
43.002885
43.793566
45.605904
51.034489
63.840802
84.289923
111.66136
144.23684
178.19463
215.42821
256.97761
295.0676
327.60337
354.6491
376.91788
395.23324
410.30676
422.72086
432.9632
441.43929
448.47876
454.34698
459.2575
463.38263
466.86199
469.8092
472.31701
474.46138
42.456917
42.573064
43.000819
43.789018
45.592972
50.994094
63.764069
84.195152
111.5746
144.17473
178.16775
215.43569
256.99471
295.07793
327.60642
354.64599
376.91
395.22176
410.2925
422.70443
432.94509
441.4199
448.4584
454.32591
459.23591
463.36068
466.83982
469.78691
472.29468
474.4391
42.456222
42.572044
42.998755
43.784478
45.580096
50.953822
63.687342
84.10025
111.48763
144.1124
178.14067
215.44296
257.01166
295.08822
327.6095
354.64292
376.90216
395.2103
410.27826
422.68801
432.92699
441.40051
448.43802
454.30481
459.21428
463.33869
466.81761
469.76457
472.27231
474.41676
42.455528
42.571023
42.996693
43.779947
45.56728
50.913689
63.610616
84.005225
111.40046
144.04986
178.11337
215.45
257.02845
295.09847
327.61257
354.63983
376.89429
395.1988
410.26396
422.67153
432.90881
441.38103
448.41756
454.28362
459.19257
463.31662
466.7953
469.74214
472.24984
474.39433
42.454836
42.570001
42.994633
43.775426
45.554503
50.873673
63.533906
83.910072
111.31309
143.9871
178.08587
215.45682
257.04508
295.10866
327.61563
354.63676
376.88643
395.18729
410.24964
422.65501
432.89058
441.3615
448.39705
454.26237
459.17079
463.29447
466.77292
469.71964
472.22731
474.37183
42.454146
42.568978
42.992576
43.770923
45.541763
50.8338
63.457204
83.814793
111.22552
143.92413
178.05817
215.46342
257.06154
295.11879
327.61867
354.63366
376.87853
395.17573
410.23526
422.63842
432.87228
441.34189
448.37644
454.24103
459.14892
463.27223
466.75045
469.69705
472.20468
474.34924
42.453458
42.567953
42.990523
43.766428
45.529086
50.794047
63.380511
83.71939
111.13774
143.86094
178.03026
215.46982
257.07785
295.12886
327.6217
354.63057
376.87065
395.16419
410.22089
422.62183
432.85398
441.32226
448.35582
454.21966
459.12702
463.24996
466.72794
469.67441
472.182
474.32661
42.452772
42.566928
42.988471
43.761948
45.516462
50.754431
63.303832
83.623858
111.04976
143.79753
178.00215
215.476
257.09398
295.13886
327.6247
354.62746
376.86273
395.15261
410.20646
422.60518
432.8356
441.30256
448.33512
454.19822
459.10503
463.2276
466.70535
469.65169
472.15925
474.30389
42.452088
42.565901
42.986423
43.757477
45.503876
50.714948
63.227167
83.528207
110.96158
143.7339
177.97384
215.48196
257.10995
295.14877
327.62766
354.62432
376.8548
395.141
410.19201
422.58849
432.81718
441.28282
448.31437
454.17672
459.08299
463.20519
466.6827
469.62891
472.13643
474.28111
42.451406
42.564873
42.98438
43.753014
45.491327
50.675591
63.15052
83.432427
110.87319
143.67005
177.94531
215.48771
257.12574
295.15859
327.63057
354.62114
376.84682
395.12933
410.17748
422.57173
432.79868
441.26299
448.29353
454.15513
459.06086
463.18269
466.65996
469.60605
472.11353
474.25824
42.450726
42.563844
42.982338
43.74856
45.478845
50.636371
63.073884
83.336524
110.78459
143.60599
177.91659
215.49325
257.14135
295.16833
327.63345
354.61796
376.83884
395.11767
410.16297
422.55497
432.78018
441.24315
448.27268
454.13352
459.03871
463.16016
466.63719
469.58315
472.09059
474.23534
42.450048
42.562815
42.980298
43.744115
45.46641
50.597275
62.997274
83.240499
110.69578
143.5417
177.88766
215.49858
257.15679
295.17797
327.63627
354.61472
376.83081
395.10595
410.14838
422.53814
432.76161
441.22323
448.25175
454.11184
459.01648
463.13755
466.61434
469.56017
472.06758
474.21237
42.449372
42.561785
42.97826
43.739678
45.454013
50.558319
62.920679
83.144346
110.60677
143.47719
177.85853
215.5037
257.17205
295.1875
327.63902
354.61144
376.82273
395.0942
410.13376
422.52127
432.74299
441.20327
448.23077
454.09011
458.9942
463.11489
466.59144
469.53714
472.04451
474.18934
42.448697
42.560754
42.976224
43.73525
45.441652
50.519487
62.844104
83.048075
110.51755
143.41244
177.82919
215.5086
257.18711
295.19691
327.6417
354.60809
376.8146
395.08237
410.11906
422.50431
432.72428
441.18322
448.2097
454.06828
458.97183
463.09214
466.56845
469.51402
472.02135
474.16622
42.448025
42.559721
42.97419
43.730838
45.429361
50.480795
62.767556
82.951678
110.42812
143.34748
177.79964
215.51329
257.202
295.20622
327.64432
354.60471
376.80644
395.07053
410.10435
422.48735
432.70556
441.16316
448.18862
454.04643
458.94943
463.06936
466.54543
469.49087
471.99816
474.14306
42.447355
42.558688
42.972157
43.726436
45.417113
50.442234
62.691029
82.855159
110.33848
143.28228
177.76988
215.51777
257.21669
295.2154
327.64685
354.60125
376.79821
395.05861
410.08956
422.4703
432.68676
441.14301
448.16744
454.0245
458.92695
463.0465
466.52232
469.46763
471.97489
474.11983
42.446686
42.557653
42.970126
43.722048
45.404902
50.403806
62.614528
82.758518
110.24862
143.21686
177.73992
215.52204
257.2312
295.22446
327.64929
354.59773
376.78993
395.04664
410.07472
422.4532
432.66791
441.12281
448.14622
454.00252
458.90441
463.02358
466.49916
469.44434
471.95157
474.09654
42.446019
42.556617
42.968097
43.71767
45.392727
50.365511
62.538052
82.66175
110.15856
143.1512
177.70974
215.5261
257.2455
295.23338
327.65164
354.59412
376.78156
395.0346
410.0598
422.43602
432.64896
441.10251
448.1249
453.98044
458.88178
463.00058
466.47591
469.42097
471.92815
474.07317
42.445355
42.55558
42.96607
43.7133
45.380622
50.327347
62.46161
82.564867
110.06828
143.08531
177.67935
215.52994
257.25962
295.24218
327.6539
354.59047
376.77316
395.02252
410.04486
422.41881
432.63
441.0822
448.10357
453.95834
458.85913
462.97754
466.45263
469.39755
471.9047
474.04976
42.444692
42.554541
42.964045
43.708937
45.368558
50.289319
62.385191
82.467857