/*--------------------------------*- C++ -*----------------------------------*\
| =========                 |                                                 |
| \\      /  F ield         | OpenFOAM: The Open Source CFD Toolbox           |
|  \\    /   O peration     | Version:  v2012                                 |
|   \\  /    A nd           | Website:  www.openfoam.com                      |
|    \\/     M anipulation  |                                                 |
\*---------------------------------------------------------------------------*/
FoamFile
{
    version     2.0;
    format      ascii;
    class       volVectorField;
    location    "400";
    object      U;
}
// * * * * * * * * * * * * * * * * * * * * * * * * * * * * * * * * * * * * * //

dimensions      [0 1 -1 0 0 0 0];


internalField   nonuniform List<vector> 
24000
(
(26.908727 -0.0034068436 0)
(27.082096 -0.0092197727 0)
(27.336587 -0.012188652 0)
(27.547847 -0.010373227 0)
(27.866321 -0.012586139 0)
(28.587701 -0.023372521 0)
(29.966678 -0.034364751 0)
(31.813652 -0.04025285 0)
(33.865178 -0.042051216 0)
(35.8012 -0.043210762 0)
(37.144795 -0.04296827 0)
(37.708387 -0.0403961 0)
(37.006108 -0.037846252 0)
(34.798986 -0.034507995 0)
(31.607731 -0.030844105 0)
(27.945004 -0.02645723 0)
(24.199771 -0.022115919 0)
(20.607646 -0.018105203 0)
(17.299062 -0.014535334 0)
(14.337865 -0.011361532 0)
(11.740596 -0.0086116611 0)
(9.4931693 -0.0062913384 0)
(7.5666039 -0.0044032153 0)
(5.9261838 -0.0029318541 0)
(4.5363294 -0.0018382164 0)
(3.3631123 -0.0010665018 0)
(2.3754851 -0.00055383097 0)
(1.5457733 -0.00023872997 0)
(0.84974349 -7.1861925e-05 0)
(0.26643798 -2.8779314e-06 0)
(26.901509 -0.0037843936 0)
(27.075711 -0.010927736 0)
(27.33254 -0.01709321 0)
(27.548845 -0.020949388 0)
(27.87562 -0.026199457 0)
(28.602921 -0.025611618 0)
(29.979784 -0.015649153 0)
(31.822598 -0.010109952 0)
(33.868425 -0.0069746915 0)
(35.80101 -0.0064552451 0)
(37.144187 -0.0074590866 0)
(37.711775 -0.0085966919 0)
(37.019722 -0.010343904 0)
(34.825687 -0.010723876 0)
(31.647564 -0.011074988 0)
(27.997705 -0.010880076 0)
(24.265288 -0.010236578 0)
(20.686315 -0.0091780852 0)
(17.39072 -0.0078205358 0)
(14.440793 -0.0063340126 0)
(11.851053 -0.004884504 0)
(9.6058893 -0.0035893216 0)
(7.6758279 -0.0025105918 0)
(6.0266731 -0.0016643647 0)
(4.6240119 -0.0010362643 0)
(3.4353233 -0.00059542551 0)
(2.4309123 -0.00030484871 0)
(1.5842432 -0.0001283974 0)
(0.87195464 -3.7000567e-05 0)
(0.27370284 -9.7565473e-07 0)
(26.89489 -0.0040504608 0)
(27.068757 -0.011895214 0)
(27.324334 -0.019006709 0)
(27.537291 -0.023547945 0)
(27.856553 -0.027448136 0)
(28.572685 -0.02321111 0)
(29.942567 -0.0097722599 0)
(31.78322 -0.0023934446 0)
(33.827451 0.0019595488 0)
(35.760148 0.0032955873 0)
(37.104898 0.0030298597 0)
(37.674606 0.0019269788 0)
(36.986384 0.00064489675 0)
(34.797706 0.00051581426 0)
(31.624318 0.0007027101 0)
(27.977524 0.0011646191 0)
(24.245674 0.0016455827 0)
(20.664454 0.0019645023 0)
(17.364146 0.002052534 0)
(14.408224 0.0019275337 0)
(11.812958 0.0016568338 0)
(9.5642024 0.0013197476 0)
(7.6332447 0.00097998569 0)
(5.9859379 0.00067987868 0)
(4.5874326 0.00043884176 0)
(3.4045506 0.00025900229 0)
(2.4069134 0.00013522227 0)
(1.5673851 5.7916642e-05 0)
(0.86213045 1.6973899e-05 0)
(0.27046223 3.4194609e-07 0)
(26.887676 -0.0042935117 0)
(27.061224 -0.012710789 0)
(27.316056 -0.020364755 0)
(27.527778 -0.025022514 0)
(27.844852 -0.028037233 0)
(28.557635 -0.022034679 0)
(29.923973 -0.0068438155 0)
(31.76306 0.0019530738 0)
(33.804718 0.007539148 0)
(35.736707 0.0094317604 0)
(37.081869 0.0092297028 0)
(37.652596 0.0073967121 0)
(36.966897 0.0052517446 0)
(34.782943 0.0034744639 0)
(31.614543 0.0020147336 0)
(27.97225 0.00090452458 0)
(24.244238 0.00013235537 0)
(20.666574 -0.00034950199 0)
(17.37004 -0.00060201998 0)
(14.417802 -0.00068098644 0)
(11.825623 -0.00063849633 0)
(9.5789082 -0.00053370943 0)
(7.6487378 -0.00040857543 0)
(6.0010132 -0.00028961378 0)
(4.6011043 -0.00018973206 0)
(3.4161224 -0.00011327908 0)
(2.4159749 -5.9879686e-05 0)
(1.5737702 -2.5990635e-05 0)
(0.86586188 -7.702351e-06 0)
(0.27169696 -3.0748835e-07 0)
(26.880233 -0.0044759404 0)
(27.053385 -0.013241232 0)
(27.307466 -0.021085213 0)
(27.518164 -0.025573355 0)
(27.833594 -0.027988165 0)
(28.543275 -0.021225074 0)
(29.905773 -0.005442274 0)
(31.742272 0.0040911849 0)
(33.781458 0.010581698 0)
(35.712364 0.012882072 0)
(37.057061 0.012801826 0)
(37.627413 0.011084151 0)
(36.94198 0.0087554184 0)
(34.760225 0.0066886309 0)
(31.594788 0.0049312433 0)
(27.955649 0.0035454779 0)
(24.230625 0.0025401382 0)
(20.655346 0.0018267204 0)
(17.360261 0.001316709 0)
(14.408896 0.00094198566 0)
(11.817312 0.00066291013 0)
(9.5711582 0.00045538717 0)
(7.6416527 0.00030311043 0)
(5.99474 0.00019376228 0)
(4.5957708 0.00011744513 0)
(3.4118076 6.6228728e-05 0)
(2.4127029 3.3530383e-05 0)
(1.5715169 1.4076018e-05 0)
(0.86456634 4.0795058e-06 0)
(0.27127393 8.16704e-08 0)
(26.872607 -0.0046035337 0)
(27.045393 -0.013579579 0)
(27.298896 -0.021476462 0)
(27.508929 -0.025791231 0)
(27.823229 -0.027872301 0)
(28.530243 -0.020775878 0)
(29.889161 -0.0047352613 0)
(31.722793 0.0052897169 0)
(33.759916 0.012363711 0)
(35.689769 0.01482398 0)
(37.033836 0.014830306 0)
(37.603525 0.013069369 0)
(36.91776 0.010618707 0)
(34.73747 0.0082186831 0)
(31.574455 0.0061036339 0)
(27.938142 0.004361469 0)
(24.215941 0.0030365542 0)
(20.643277 0.0020618599 0)
(17.350551 0.0013687148 0)
(14.401271 0.00088925071 0)
(11.811478 0.00056575572 0)
(9.566806 0.00035206199 0)
(7.6384863 0.00021351165 0)
(5.992493 0.0001253797 0)
(4.5942178 7.0488061e-05 0)
(3.4107677 3.7154693e-05 0)
(2.4120368 1.7728182e-05 0)
(1.5711207 7.0776883e-06 0)
(0.86436536 1.9962008e-06 0)
(0.27121577 1.2355254e-08 0)
(26.86487 -0.0046876154 0)
(27.037329 -0.013784544 0)
(27.290364 -0.021676821 0)
(27.499898 -0.025860511 0)
(27.813229 -0.027757681 0)
(28.517665 -0.020518683 0)
(29.873014 -0.0043488746 0)
(31.703708 0.0059874849 0)
(33.738917 0.013413524 0)
(35.667645 0.015967481 0)
(37.010887 0.016032059 0)
(37.579635 0.014280684 0)
(36.893004 0.011766382 0)
(34.713519 0.0092090998 0)
(31.552405 0.0069225824 0)
(27.918601 0.0050139123 0)
(24.199091 0.0035455061 0)
(20.629029 0.0024534496 0)
(17.338685 0.0016666097 0)
(14.391511 0.0011125032 0)
(11.803529 0.00072943191 0)
(9.5603975 0.00046850528 0)
(7.6333809 0.00029337923 0)
(5.9884894 0.00017778042 0)
(4.5911461 0.0001030296 0)
(3.4084837 5.5979531e-05 0)
(2.4104182 2.7501982e-05 0)
(1.5700638 1.1268063e-05 0)
(0.86378221 3.2170539e-06 0)
(0.27103212 5.270338e-08 0)
(26.857064 -0.0047409794 0)
(27.029233 -0.013905965 0)
(27.281881 -0.02177653 0)
(27.49101 -0.025873966 0)
(27.803443 -0.027672733 0)
(28.505354 -0.020381585 0)
(29.857131 -0.004138735 0)
(31.68496 0.0064015882 0)
(33.718304 0.014032972 0)
(35.645891 0.016644995 0)
(36.988224 0.016749184 0)
(37.555891 0.014994406 0)
(36.868119 0.012443565 0)
(34.689101 0.0097847367 0)
(31.529629 0.0073880533 0)
(27.898185 0.0053706594 0)
(24.181321 0.0038072047 0)
(20.613897 0.0026377764 0)
(17.326035 0.0017915684 0)
(14.381104 0.0011942321 0)
(11.795086 0.00078110109 0)
(9.5536365 0.00050014567 0)
(7.6280432 0.00031206045 0)
(5.9843461 0.00018834949 0)
(4.5879998 0.00010867861 0)
(3.406167 5.8740877e-05 0)
(2.4087908 2.869138e-05 0)
(1.569009 1.1689753e-05 0)
(0.86320372 3.3319897e-06 0)
(0.27085093 5.9642007e-08 0)
(26.849218 -0.0047738935 0)
(27.021127 -0.013976893 0)
(27.273436 -0.021824191 0)
(27.482207 -0.025868778 0)
(27.793773 -0.027616262 0)
(28.493182 -0.020316147 0)
(29.841379 -0.0040304657 0)
(31.666388 0.0066469845 0)
(33.697887 0.014402938 0)
(35.624317 0.017058167 0)
(36.965683 0.01718855 0)
(37.532183 0.015432564 0)
(36.843092 0.012862078 0)
(34.664328 0.010144535 0)
(31.50633 0.0076840398 0)
(27.877146 0.0056034075 0)
(24.16289 0.0039842 0)
(20.598114 0.0027685757 0)
(17.312771 0.0018859431 0)
(14.370138 0.0012607913 0)
(11.786144 0.00082706655 0)
(9.5464409 0.00053107115 0)
(7.6223355 0.00033235616 0)
(5.9798957 0.0002012573 0)
(4.5846065 0.00011657429 0)
(3.4036593 6.3373379e-05 0)
(2.4070236 3.1173934e-05 0)
(1.5678606 1.2801675e-05 0)
(0.86257249 3.6641666e-06 0)
(0.27065279 7.873726e-08 0)
(26.841349 -0.0047939025 0)
(27.013019 -0.014018663 0)
(27.265019 -0.021846467 0)
(27.473456 -0.025860643 0)
(27.784166 -0.027583132 0)
(28.481091 -0.020297535 0)
(29.825702 -0.0039865425 0)
(31.64792 0.0067911026 0)
(33.677584 0.014627289 0)
(35.602846 0.017314959 0)
(36.943216 0.017462197 0)
(37.508498 0.015704787 0)
(36.81798 0.013120225 0)
(34.639339 0.010365569 0)
(31.482716 0.0078643052 0)
(27.85573 0.0057433469 0)
(24.144061 0.0040883289 0)
(20.58194 0.0028433058 0)
(17.299146 0.0019377833 0)
(14.358854 0.0012956471 0)
(11.776933 0.00084975572 0)
(9.5390249 0.00054540231 0)
(7.6164516 0.00034101467 0)
(5.9753082 0.00020620115 0)
(4.5811092 0.00011916646 0)
(3.4010754 6.4482907e-05 0)
(2.4052032 3.1531782e-05 0)
(1.5666777 1.2883767e-05 0)
(0.86192244 3.6927068e-06 0)
(0.27044876 8.1103682e-08 0)
(26.833467 -0.0048061114 0)
(27.004913 -0.014044317 0)
(27.25662 -0.021857335 0)
(27.464736 -0.025855471 0)
(27.774597 -0.027567856 0)
(28.469048 -0.020308454 0)
(29.810066 -0.0039834366 0)
(31.629509 0.0068705653 0)
(33.657343 0.01476307 0)
(35.581431 0.017477587 0)
(36.920788 0.017636712 0)
(37.484816 0.015878535 0)
(36.792802 0.013283576 0)
(34.614205 0.01050604 0)
(31.458893 0.0079793356 0)
(27.834067 0.0058335754 0)
(24.124971 0.0041564112 0)
(20.565511 0.0028930768 0)
(17.285285 0.0019731911 0)
(14.34736 0.0013202668 0)
(11.76754 0.0008665362 0)
(9.5314559 0.00055659461 0)
(7.6104421 0.00034836009 0)
(5.97062 0.00021093219 0)
(4.5775335 0.00012214304 0)
(3.3984326 6.634068e-05 0)
(2.4033406 3.2592889e-05 0)
(1.5654672 1.3364736e-05 0)
(0.86125693 3.8202482e-06 0)
(0.27023981 8.3475171e-08 0)
(26.825578 -0.0048138441 0)
(26.996809 -0.014061582 0)
(27.248232 -0.021863972 0)
(27.456034 -0.025855202 0)
(27.765049 -0.027565941 0)
(28.457036 -0.020338699 0)
(29.794457 -0.0040066945 0)
(31.61113 0.0069088634 0)
(33.637138 0.014843591 0)
(35.560047 0.017581546 0)
(36.898381 0.017750043 0)
(37.461133 0.015990965 0)
(36.767577 0.013387721 0)
(34.588973 0.010595389 0)
(31.434932 0.0080520113 0)
(27.812242 0.0058902161 0)
(24.105709 0.0041985703 0)
(20.548913 0.0029233205 0)
(17.271268 0.0019941197 0)
(14.335727 0.001334264 0)
(11.75803 0.00087555408 0)
(9.5237889 0.00056220326 0)
(7.6043537 0.0003516495 0)
(5.9658699 0.00021271126 0)
(4.5739106 0.00012298284 0)
(3.3957549 6.6595305e-05 0)
(2.4014536 3.2590046e-05 0)
(1.5642407 1.331819e-05 0)
(0.86058267 3.8117049e-06 0)
(0.27002809 8.4473857e-08 0)
(26.817685 -0.00481914 0)
(26.988707 -0.014074834 0)
(27.239851 -0.021869851 0)
(27.447342 -0.025859861 0)
(27.755514 -0.027573751 0)
(28.445043 -0.020383071 0)
(29.778863 -0.0040482372 0)
(31.592769 0.0069218251 0)
(33.616954 0.014890208 0)
(35.538682 0.017649407 0)
(36.875986 0.017825544 0)
(37.437446 0.016065833 0)
(36.742317 0.01345614 0)
(34.563674 0.010654772 0)
(31.41088 0.0081010766 0)
(27.790312 0.0059296441 0)
(24.086338 0.0042291249 0)
(20.532209 0.0029463332 0)
(17.257153 0.00201108 0)
(14.324007 0.0013465027 0)
(11.748444 0.00088426737 0)
(9.5160588 0.00056826132 0)
(7.5982134 0.00035583673 0)
(5.9610783 0.00021557259 0)
(4.5702554 0.00012490989 0)
(3.3930529 6.7922078e-05 0)
(2.3995491 3.3421051e-05 0)
(1.5630027 1.3729492e-05 0)
(0.85990202 3.9284119e-06 0)
(0.26981433 8.8580406e-08 0)
(26.80979 -0.0048232162 0)
(26.980606 -0.014086458 0)
(27.231474 -0.021876564 0)
(27.438654 -0.02586906 0)
(27.745986 -0.027588791 0)
(28.433065 -0.020435873 0)
(29.76328 -0.0041016793 0)
(31.574419 0.0069156341 0)
(33.596783 0.014913073 0)
(35.517328 0.017692694 0)
(36.853599 0.017875537 0)
(37.413755 0.016114804 0)
(36.717032 0.01349901 0)
(34.538329 0.01069137 0)
(31.386766 0.0081304351 0)
(27.768309 0.00595252 0)
(24.066889 0.0042459196 0)
(20.515429 0.0029581239 0)
(17.242967 0.0020189338 0)
(14.312225 0.0013514658 0)
(11.738805 0.00088718076 0)
(9.5082851 0.00056984625 0)
(7.5920383 0.00035653553 0)
(5.9562595 0.00021572816 0)
(4.5665796 0.00012476468 0)
(3.390336 6.7582251e-05 0)
(2.3976342 3.3089425e-05 0)
(1.5617581 1.3539405e-05 0)
(0.85921768 3.8818492e-06 0)
(0.26959942 8.9251379e-08 0)
(26.801893 -0.0048267305 0)
(26.972505 -0.014097639 0)
(27.223098 -0.021884681 0)
(27.429969 -0.025882164 0)
(27.736463 -0.027609292 0)
(28.421097 -0.020495958 0)
(29.747707 -0.0041637971 0)
(31.556076 0.0068989348 0)
(33.576619 0.014921584 0)
(35.495979 0.017720825 0)
(36.831217 0.017909824 0)
(37.39006 0.016148084 0)
(36.691726 0.013526799 0)
(34.51295 0.010715298 0)
(31.362608 0.0081498733 0)
(27.746256 0.0059683294 0)
(24.047389 0.0042582133 0)
(20.498599 0.0029674403 0)
(17.228734 0.0020258369 0)
(14.300401 0.0013565019 0)
(11.72913 0.00089082693 0)
(9.5004816 0.000572449 0)
(7.5858389 0.00035841294 0)
(5.9514214 0.00021709285 0)
(4.5628887 0.000125753 0)
(3.3876076 6.8329979e-05 0)
(2.3957111 3.3589522e-05 0)
(1.560508 1.3785447e-05 0)
(0.85853035 3.942213e-06 0)
(0.26938355 8.8346848e-08 0)
(26.793994 -0.0048300412 0)
(26.964404 -0.014108935 0)
(27.214721 -0.021894239 0)
(27.421285 -0.025898414 0)
(27.726942 -0.027633878 0)
(28.409139 -0.020560952 0)
(29.732138 -0.0042320809 0)
(31.537736 0.0068742383 0)
(33.556458 0.014920158 0)
(35.474634 0.017738518 0)
(36.808838 0.017932717 0)
(37.366362 0.016169904 0)
(36.666405 0.013543258 0)
(34.487547 0.010729179 0)
(31.33842 0.0081606646 0)
(27.724169 0.0059768756 0)
(24.027851 0.0042644496 0)
(20.481732 0.0029717657 0)
(17.214467 0.0020286356 0)
(14.288546 0.0013581716 0)
(11.719429 0.00089169601 0)
(9.4926562 0.00057281844 0)
(7.5796221 0.00035845386 0)
(5.94657 0.00021694198 0)
(4.5591882 0.0001255134 0)
(3.3848724 6.8037413e-05 0)
(2.3937834 3.3341119e-05 0)
(1.559255 1.3647748e-05 0)
(0.85784142 3.9084814e-06 0)
(0.26916716 8.9060871e-08 0)
(26.786093 -0.0048333233 0)
(26.956302 -0.014120615 0)
(27.206345 -0.021905132 0)
(27.4126 -0.025917162 0)
(27.717424 -0.027661387 0)
(28.397188 -0.020628363 0)
(29.716577 -0.0043046585 0)
(31.519399 0.0068418809 0)
(33.536301 0.01491041 0)
(35.453292 0.017748085 0)
(36.786462 0.01794759 0)
(37.342663 0.016184181 0)
(36.641073 0.013553086 0)
(34.46213 0.010738158 0)
(31.314215 0.0081683909 0)
(27.702063 0.0059841585 0)
(24.008296 0.0042709548 0)
(20.464848 0.0029774054 0)
(17.200184 0.0020334013 0)
(14.276677 0.0013620731 0)
(11.709715 0.0008948325 0)
(9.4848194 0.00057524884 0)
(7.5733954 0.00036033554 0)
(5.9417101 0.00021838637 0)
(4.5554806 0.00012660295 0)
(3.3821316 6.889531e-05 0)
(2.3918516 3.3934941e-05 0)
(1.5579993 1.3954803e-05 0)
(0.85715089 3.9899077e-06 0)
(0.26895027 8.8638844e-08 0)
(26.778191 -0.0048366722 0)
(26.948199 -0.014132819 0)
(27.197966 -0.02191721 0)
(27.403915 -0.025937806 0)
(27.707907 -0.027691075 0)
(28.385246 -0.020699239 0)
(29.701022 -0.004380886 0)
(31.501064 0.0068069439 0)
(33.516147 0.014896197 0)
(35.431952 0.017752642 0)
(36.764089 0.017956374 0)
(37.318962 0.016191956 0)
(36.615733 0.013556306 0)
(34.436701 0.010740623 0)
(31.289998 0.0081697106 0)
(27.679942 0.0059852239 0)
(23.988724 0.004271449 0)
(20.447947 0.0029774267 0)
(17.185885 0.0020330145 0)
(14.264794 0.0013614257 0)
(11.699989 0.00089402686 0)
(9.4769728 0.00057441865 0)
(7.5671612 0.00035950793 0)
(5.9368448 0.00021759955 0)
(4.5517691 0.00012589817 0)
(3.3793882 6.8235387e-05 0)
(2.389918 3.3434245e-05 0)
(1.5567424 1.3694391e-05 0)
(0.85645984 3.9271108e-06 0)
(0.26873322 9.0600768e-08 0)
(26.770286 -0.0048401112 0)
(26.940094 -0.014145575 0)
(27.189587 -0.021930266 0)
(27.395228 -0.025959889 0)
(27.698392 -0.027722457 0)
(28.37331 -0.020771484 0)
(29.685472 -0.0044592434 0)
(31.48273 0.0067683932 0)
(33.495993 0.01487824 0)
(35.410613 0.01775329 0)
(36.741719 0.01796048 0)
(37.29526 0.016195179 0)
(36.590385 0.01355547 0)
(34.411265 0.010739889 0)
(31.265772 0.0081688497 0)
(27.657814 0.0059851954 0)
(23.969144 0.004271854 0)
(20.431038 0.0029781241 0)
(17.171578 0.0020338599 0)
(14.252903 0.0013623081 0)
(11.690256 0.00089489313 0)
(9.4691204 0.00057521409 0)
(7.5609219 0.00036024598 0)
(5.9319749 0.000218276 0)
(4.5480539 0.00012649099 0)
(3.3766418 6.8784788e-05 0)
(2.3879822 3.3846127e-05 0)
(1.555484 1.3902758e-05 0)
(0.85576788 3.9751604e-06 0)
(0.26851588 8.8315409e-08 0)
(26.762378 -0.0048436457 0)
(26.931987 -0.014158845 0)
(27.181205 -0.021944109 0)
(27.386539 -0.025982995 0)
(27.688877 -0.027754789 0)
(28.361382 -0.020844901 0)
(29.669929 -0.0045397792 0)
(31.464397 0.0067271836 0)
(33.475842 0.014857003 0)
(35.389276 0.017750763 0)
(36.719352 0.017961565 0)
(37.271559 0.016195186 0)
(36.565033 0.01355124 0)
(34.385823 0.010735983 0)
(31.241543 0.0081650038 0)
(27.635681 0.0059823153 0)
(23.949559 0.0042695087 0)
(20.414123 0.0029761969 0)
(17.157266 0.0020322223 0)
(14.241007 0.0013609072 0)
(11.680518 0.00089367673 0)
(9.461264 0.00057418153 0)
(7.5546796 0.00035935025 0)
(5.9271033 0.00021750183 0)
(4.5443377 0.00012584235 0)
(3.373895 6.8206032e-05 0)
(2.3860463 3.3418692e-05 0)
(1.5542257 1.3685111e-05 0)
(0.85507599 3.9239519e-06 0)
(0.26829856 9.0695379e-08 0)
(26.754468 -0.004847263 0)
(26.923878 -0.014172561 0)
(27.17282 -0.021958573 0)
(27.377849 -0.026006864 0)
(27.679362 -0.027788129 0)
(28.34946 -0.02091996 0)
(29.654391 -0.0046217548 0)
(31.446064 0.0066854987 0)
(33.455691 0.014834523 0)
(35.36794 0.017747108 0)
(36.696988 0.017961611 0)
(37.247858 0.016194256 0)
(36.539676 0.01354635 0)
(34.36038 0.010732279 0)
(31.217314 0.0081622987 0)
(27.613551 0.0059814269 0)
(23.929977 0.004269852 0)
(20.397212 0.0029773651 0)
(17.142956 0.0020338574 0)
(14.229113 0.0013626923 0)
(11.670782 0.00089543804 0)
(9.4534078 0.00057577271 0)
(7.5484368 0.00036075918 0)
(5.9222305 0.00021871449 0)
(4.54062 0.00012684362 0)
(3.3711467 6.9069106e-05 0)
(2.3841091 3.4046356e-05 0)
(1.5529664 1.4008714e-05 0)
(0.85438353 4.0016887e-06 0)
(0.26808105 8.6633799e-08 0)
(26.746556 -0.0048509713 0)
(26.915767 -0.014186645 0)
(27.164434 -0.021973486 0)
(27.369157 -0.026031288 0)
(27.669849 -0.027821833 0)
(28.337545 -0.020994651 0)
(29.638859 -0.0047047571 0)
(31.427733 0.0066406584 0)
(33.435542 0.014809155 0)
(35.346605 0.017740791 0)
(36.674628 0.017958617 0)
(37.224158 0.016189958 0)
(36.514317 0.013537653 0)
(34.334935 0.010724573 0)
(31.193086 0.0081553644 0)
(27.591421 0.005976107 0)
(23.910396 0.0042656002 0)
(20.3803 0.0029739536 0)
(17.128646 0.0020310499 0)
(14.217218 0.0013603783 0)
(11.661044 0.00089350475 0)
(9.4455512 0.0005741798 0)
(7.5421941 0.00035941702 0)
(5.9173581 0.00021757864 0)
(4.536903 0.00012590666 0)
(3.3683991 6.8247784e-05 0)
(2.3821726 3.344479e-05 0)
(1.5517077 1.3703967e-05 0)
(0.8536914 3.9312124e-06 0)
(0.26786366 9.0674597e-08 0)
(26.73864 -0.0048547659 0)
(26.907654 -0.014201007 0)
(27.156044 -0.021988691 0)
(27.360463 -0.026056057 0)
(27.660336 -0.027855808 0)
(28.325638 -0.021070661 0)
(29.623334 -0.0047892849 0)
(31.409403 0.0065959936 0)
(33.415394 0.014783077 0)
(35.325271 0.017733924 0)
(36.652272 0.017955039 0)
(37.200459 0.016184846 0)
(36.488955 0.01352838 0)
(34.309491 0.010716764 0)
(31.168861 0.0081488815 0)
(27.569297 0.0059718116 0)
(23.890819 0.00426289 0)
(20.363393 0.0029724497 0)
(17.11434 0.002030381 0)
(14.205326 0.0013602322 0)
(11.651309 0.00089368173 0)
(9.4376961 0.00057452494 0)
(7.535952 0.0003598687 0)
(5.9124859 0.00021808082 0)
(4.5331858 0.00012639808 0)
(3.3656512 6.8750906e-05 0)
(2.3802357 3.38388e-05 0)
(1.5504485 1.3903769e-05 0)
(0.85299904 3.9759011e-06 0)
(0.26764619 8.7533855e-08 0)
(26.730722 -0.004858638 0)
(26.899538 -0.014215579 0)
(27.147652 -0.02200408 0)
(27.351767 -0.026081139 0)
(27.650824 -0.027890503 0)
(28.313737 -0.021147278 0)
(29.607814 -0.0048738239 0)
(31.391072 0.0065513595 0)
(33.395247 0.014756635 0)
(35.303938 0.017726645 0)
(36.629918 0.01795047 0)
(37.176762 0.016178511 0)
(36.46359 0.013517924 0)
(34.284047 0.010707639 0)
(31.144639 0.0081409006 0)
(27.547176 0.0059658223 0)
(23.871246 0.0042583017 0)
(20.346488 0.0029689563 0)
(17.100034 0.0020276827 0)
(14.193433 0.0013581329 0)
(11.641573 0.00089201885 0)
(9.42984 0.00057321164 0)
(7.5297095 0.00035880237 0)
(5.9076137 0.00021720712 0)
(4.5294691 0.0001256957 0)
(3.3629038 6.8140778e-05 0)
(2.3782994 3.3395462e-05 0)
(1.5491899 1.3682313e-05 0)
(0.85230699 3.9259275e-06 0)
(0.26742882 9.1099754e-08 0)
(26.722801 -0.0048625702 0)
(26.89142 -0.014230306 0)
(27.139258 -0.022019542 0)
(27.343069 -0.026106321 0)
(27.641312 -0.027924756 0)
(28.301842 -0.021223031 0)
(29.592301 -0.0049595516 0)
(31.372743 0.0065039127 0)
(33.375101 0.014728132 0)
(35.282607 0.017717678 0)
(36.607568 0.017944138 0)
(37.153066 0.016171045 0)
(36.438225 0.013507212 0)
(34.258606 0.010699153 0)
(31.120425 0.0081344803 0)
(27.525064 0.0059621934 0)
(23.851684 0.0042567029 0)
(20.329594 0.0029688113 0)
(17.085738 0.0020284688 0)
(14.18155 0.0013593949 0)
(11.631844 0.00089347594 0)
(9.421989 0.00057464506 0)
(7.5234701 0.00036014409 0)
(5.9027432 0.00021840554 0)
(4.5257529 0.00012670817 0)
(3.3601566 6.9031462e-05 0)
(2.3763628 3.4049951e-05 0)
(1.547931 1.4017924e-05 0)
(0.85161475 4.0016738e-06 0)
(0.26721138 8.4170105e-08 0)
(26.714877 -0.0048665651 0)
(26.883299 -0.014245157 0)
(27.130861 -0.022035056 0)
(27.334369 -0.026131614 0)
(27.631801 -0.027959428 0)
(28.289956 -0.021300098 0)
(29.576796 -0.0050456121 0)
(31.354414 0.0064580916 0)
(33.354957 0.014699974 0)
(35.261278 0.017708812 0)
(36.585223 0.017937534 0)
(37.129372 0.016162456 0)
(36.412858 0.013494693 0)
(34.233167 0.010688362 0)
(31.096216 0.0081251845 0)
(27.50296 0.0059551456 0)
(23.832127 0.0042512226 0)
(20.312705 0.0029645426 0)
(17.071446 0.0020250726 0)
(14.169669 0.0013566849 0)
(11.622117 0.0008912774 0)
(9.4141398 0.00057286807 0)
(7.5172325 0.00035866826 0)
(5.8978744 0.00021716663 0)
(4.5220384 0.0001256922 0)
(3.3574106 6.8144196e-05 0)
(2.3744274 3.3401029e-05 0)
(1.546673 1.3690611e-05 0)
(0.85092298 3.9276314e-06 0)
(0.26699411 8.9481155e-08 0)
(26.70695 -0.004870631 0)
(26.875176 -0.014260114 0)
(27.122462 -0.022050567 0)
(27.325668 -0.026156969 0)
(27.622291 -0.02799415 0)
(28.278075 -0.021376932 0)
(29.561295 -0.0051317588 0)
(31.336086 0.00641152 0)
(33.334813 0.014670826 0)
(35.239949 0.017699542 0)
(36.56288 0.017930758 0)
(37.10568 0.016153311 0)
(36.38749 0.013481618 0)
(34.207731 0.010677496 0)
(31.072012 0.0081163442 0)
(27.480862 0.0059490757 0)
(23.812579 0.0042471942 0)
(20.295823 0.0029620762 0)
(17.057161 0.0020237128 0)
(14.157793 0.0013560493 0)
(11.612394 0.00089111754 0)
(9.4062934 0.00057299259 0)
(7.5109966 0.0003589851 0)
(5.8930064 0.00021759541 0)
(4.518324 0.00012614975 0)
(3.3546645 6.8646193e-05 0)
(2.3724916 3.3804692e-05 0)
(1.5454145 1.3895287e-05 0)
(0.85023099 3.972862e-06 0)
(0.26677675 8.5889801e-08 0)
(26.69902 -0.0048747927 0)
(26.86705 -0.014275193 0)
(27.114059 -0.022066017 0)
(27.316964 -0.026182098 0)
(27.612782 -0.028028174 0)
(28.266202 -0.021453435 0)
(29.545803 -0.0052192624 0)
(31.317759 0.0063632271 0)
(33.314671 0.014640403 0)
(35.218621 0.017689396 0)
(36.540542 0.017923044 0)
(37.08199 0.016142959 0)
(36.362121 0.01346704 0)
(34.182297 0.010665145 0)
(31.047815 0.0081059176 0)
(27.458773 0.0059412629 0)
(23.793037 0.0042412591 0)
(20.278947 0.0029575893 0)
(17.04288 0.0020202837 0)
(14.145921 0.0013534191 0)
(11.602674 0.00088906768 0)
(9.3984494 0.00057139475 0)
(7.5047632 0.00035770207 0)
(5.888141 0.00021655411 0)
(4.5146121 0.00012531922 0)
(3.3519206 6.7927006e-05 0)
(2.3705577 3.3284198e-05 0)
(1.5441574 1.3637315e-05 0)
(0.84953978 3.9153454e-06 0)
(0.26655966 9.0530772e-08 0)
(26.691086 -0.0048790788 0)
(26.858922 -0.014290422 0)
(27.105655 -0.022081489 0)
(27.308259 -0.026207401 0)
(27.603273 -0.028062775 0)
(28.254336 -0.021530659 0)
(29.530317 -0.005305779 0)
(31.299432 0.0063173601 0)
(33.29453 0.014611017 0)
(35.197295 0.017680238 0)
(36.518207 0.017916384 0)
(37.058301 0.016133595 0)
(36.336751 0.013453749 0)
(34.156867 0.010654776 0)
(31.023626 0.0080981808 0)
(27.436694 0.0059367322 0)
(23.773508 0.0042390436 0)
(20.262085 0.0029570377 0)
(17.028611 0.0020208263 0)
(14.134059 0.0013545542 0)
(11.592961 0.00089048702 0)
(9.3906111 0.00057285111 0)
(7.4985333 0.00035910672 0)
(5.8832773 0.00021783439 0)
(4.5109008 0.00012641415 0)
(3.3491767 6.8898951e-05 0)
(2.3686234 3.4000197e-05 0)
(1.5428999 1.4002922e-05 0)
(0.84884829 3.9959946e-06 0)
(0.26634246 8.2214045e-08 0)
(26.68315 -0.0048835145 0)
(26.850791 -0.014305767 0)
(27.097247 -0.022096853 0)
(27.299551 -0.026232528 0)
(27.593764 -0.028096664 0)
(28.242477 -0.021607219 0)
(29.514837 -0.0053935213 0)
(31.281106 0.006269383 0)
(33.27439 0.014580068 0)
(35.17597 0.017669926 0)
(36.495876 0.01790828 0)
(37.034614 0.016122358 0)
(36.311381 0.013438332 0)
(34.131441 0.010641883 0)
(30.999444 0.0080874271 0)
(27.414623 0.0059286948 0)
(23.753986 0.0042328822 0)
(20.245227 0.0029522869 0)
(17.014347 0.0020170821 0)
(14.1222 0.0013515927 0)
(11.583252 0.00088810205 0)
(9.3827753 0.00057093236 0)
(7.4923057 0.00035752077 0)
(5.8784158 0.00021650998 0)
(4.5071915 0.00012533462 0)
(3.3464345 6.7961963e-05 0)
(2.3666904 3.3317786e-05 0)
(1.5416434 1.3660306e-05 0)
(0.84815737 3.9195697e-06 0)
(0.26612545 8.8507607e-08 0)
(26.67521 -0.0048880864 0)
(26.842657 -0.014321184 0)
(27.088837 -0.022112147 0)
(27.290841 -0.026257705 0)
(27.584257 -0.028130756 0)
(28.230625 -0.021683973 0)
(29.499366 -0.0054808894 0)
(31.262781 0.0062219914 0)
(33.254252 0.01454915 0)
(35.154647 0.017659675 0)
(36.473548 0.017899724 0)
(37.010927 0.016110591 0)
(36.286009 0.013422804 0)
(34.106017 0.010629359 0)
(30.975268 0.0080776092 0)
(27.39256 0.0059220658 0)
(23.734474 0.0042285387 0)
(20.228379 0.0029496437 0)
(17.000091 0.0020156244 0)
(14.110349 0.0013509043 0)
(11.573549 0.000887915 0)
(9.3749442 0.00057104597 0)
(7.4860815 0.00035783922 0)
(5.8735566 0.00021694882 0)
(4.5034836 0.00012580578 0)
(3.343693 6.8481319e-05 0)
(2.3647578 3.3736948e-05 0)
(1.540387 1.3873479e-05 0)
(0.84746649 3.9666843e-06 0)
(0.26590845 8.456057e-08 0)
(26.667267 -0.0048927369 0)
(26.834521 -0.014336582 0)
(27.080423 -0.022127409 0)
(27.28213 -0.026283073 0)
(27.574749 -0.02816509 0)
(28.218779 -0.021761369 0)
(29.4839 -0.0055682738 0)
(31.244455 0.0061762127 0)
(33.234114 0.014519033 0)
(35.133325 0.017649796 0)
(36.451224 0.017891433 0)
(36.987241 0.016098369 0)
(36.260635 0.013406338 0)
(34.080597 0.010615798 0)
(30.951098 0.0080666504 0)
(27.370504 0.0059140493 0)
(23.714967 0.0042225619 0)
(20.211536 0.002945179 0)
(16.985839 0.0020122362 0)
(14.0985 0.001348318 0)
(11.563847 0.00088590294 0)
(9.3671146 0.00056947715 0)
(7.479859 0.00035657726 0)
(5.8686994 0.00021592155 0)
(4.4997777 0.00012498435 0)
(3.3409534 6.7767756e-05 0)
(2.3628268 3.3219502e-05 0)
(1.5391318 1.3617268e-05 0)
(0.84677631 3.9104885e-06 0)
(0.26569168 8.9690267e-08 0)
(26.659322 -0.0048973879 0)
(26.826382 -0.014351871 0)
(27.072007 -0.022142552 0)
(27.273416 -0.026308277 0)
(27.565243 -0.028198639 0)
(28.206941 -0.021837999 0)
(29.468441 -0.0056571724 0)
(31.22613 0.0061272282 0)
(33.213978 0.014486336 0)
(35.112004 0.017638745 0)
(36.428903 0.017882985 0)
(36.963555 0.016086051 0)
(36.23526 0.013390034 0)
(34.055183 0.010603326 0)
(30.926938 0.0080578658 0)
(27.348461 0.0059090076 0)
(23.695475 0.004220163 0)
(20.194707 0.0029446423 0)
(16.9716 0.0020129146 0)
(14.086663 0.0013496499 0)
(11.554155 0.00088754906 0)
(9.3592919 0.0005711655 0)
(7.473641 0.00035820712 0)
(5.8638447 0.00021740727 0)
(4.496073 0.00012625302 0)
(3.3382141 6.8885021e-05 0)
(2.3608957 3.4040664e-05 0)
(1.5378763 1.4037541e-05 0)
(0.84608592 4.0019197e-06 0)
(0.26547482 7.9410259e-08 0)
(26.651373 -0.0049019936 0)
(26.81824 -0.014367053 0)
(27.063589 -0.022157742 0)
(27.2647 -0.026333859 0)
(27.555737 -0.028233062 0)
(28.19511 -0.021915329 0)
(29.452991 -0.005745244 0)
(31.207806 0.0060799061 0)
(33.193843 0.014454426 0)
(35.090686 0.017628067 0)
(36.406586 0.017874517 0)
(36.93987 0.016072768 0)
(36.209885 0.013371761 0)
(34.029775 0.010588226 0)
(30.902785 0.0080460307 0)
(27.326425 0.0059003287 0)
(23.675989 0.0042135871 0)
(20.177885 0.0029395916 0)
(16.957365 0.0020089252 0)
(14.07483 0.0013464785 0)
(11.544465 0.00088497099 0)
(9.351472 0.00056906482 0)
(7.4674257 0.00035644579 0)
(5.8589925 0.0002159136 0)
(4.4923706 0.00012502153 0)
(3.3354768 6.7810246e-05 0)
(2.3589661 3.3253976e-05 0)
(1.536622 1.3640515e-05 0)
(0.84539619 3.9129278e-06 0)
(0.26525819 8.6541042e-08 0)
(26.643421 -0.0049065349 0)
(26.810096 -0.014382156 0)
(27.055168 -0.022172969 0)
(27.255983 -0.026359489 0)
(27.546232 -0.028266992 0)
(28.183286 -0.021993068 0)
(29.437547 -0.0058346431 0)
(31.189482 0.0060327644 0)
(33.17371 0.014422099 0)
(35.069368 0.017616899 0)
(36.384273 0.017865825 0)
(36.916185 0.01605875 0)
(36.184506 0.013352746 0)
(34.004374 0.010572671 0)
(30.87864 0.0080346814 0)
(27.304399 0.0058927267 0)
(23.656514 0.0042085975 0)
(20.161071 0.002936515 0)
(16.94314 0.0020071767 0)
(14.063003 0.001345592 0)
(11.534782 0.00088465358 0)
(9.3436566 0.00056910349 0)
(7.4612135 0.00035673642 0)
(5.8541423 0.0002163636 0)
(4.4886693 0.00012552634 0)
(3.33274 6.8387933e-05 0)
(2.3570368 3.3726408e-05 0)
(1.5353676 1.3880289e-05 0)
(0.84470641 3.9667147e-06 0)
(0.26504154 8.2419171e-08 0)
(26.635466 -0.0049110442 0)
(26.801949 -0.014397257 0)
(27.046745 -0.022188246 0)
(27.247265 -0.026385323 0)
(27.536728 -0.028301241 0)
(28.171469 -0.022069681 0)
(29.422111 -0.0059234298 0)
(31.171159 0.0059837179 0)
(33.153578 0.014388769 0)
(35.048053 0.017605451 0)
(36.361963 0.017856873 0)
(36.892498 0.016043724 0)
(36.159124 0.013332535 0)
(33.978984 0.010555445 0)
(30.854504 0.0080219288 0)
(27.282381 0.0058834641 0)
(23.637046 0.0042017002 0)
(20.144264 0.0029313282 0)
(16.928919 0.0020031989 0)
(14.051181 0.0013425204 0)
(11.525101 0.00088223167 0)
(9.3358435 0.00056718281 0)
(7.4550038 0.00035516176 0)
(5.8492946 0.00021505976 0)
(4.4849705 0.0001244701 0)