/*--------------------------------*- C++ -*----------------------------------*\
| =========                 |                                                 |
| \\      /  F ield         | OpenFOAM: The Open Source CFD Toolbox           |
|  \\    /   O peration     | Version:  v2012                                 |
|   \\  /    A nd           | Website:  www.openfoam.com                      |
|    \\/     M anipulation  |                                                 |
\*---------------------------------------------------------------------------*/
FoamFile
{
    version     2.0;
    format      ascii;
    class       volScalarField;
    location    "450";
    object      alphat;
}
// * * * * * * * * * * * * * * * * * * * * * * * * * * * * * * * * * * * * * //

dimensions      [1 -1 -1 0 0 0 0];


internalField   nonuniform List<scalar> 
24000
(
0.00082891939
0.00023716903
0.00017142939
0.00010909248
7.6811616e-05
8.9571913e-05
7.6231323e-05
5.9559851e-05
4.3766544e-05
3.2130499e-05
2.3879972e-05
1.0416188e-05
5.4463579e-06
3.1721384e-06
1.7673295e-06
1.0248086e-06
5.8218283e-07
2.9033228e-07
1.1598261e-07
4.0431837e-08
1.2629695e-08
3.6024696e-09
9.4196862e-10
2.2284722e-10
4.6239676e-11
8.0090261e-12
1.1311841e-12
2.1492009e-13
1.5467541e-13
1.6440677e-13
0.00082847881
0.00023390187
0.00016794712
0.00010610395
7.6346282e-05
8.9266393e-05
7.6405765e-05
5.9682193e-05
4.3851782e-05
3.2200073e-05
2.3900086e-05
1.0435558e-05
5.4532305e-06
3.1711976e-06
1.7687686e-06
1.0265816e-06
5.8357904e-07
2.9102235e-07
1.1627162e-07
4.0531589e-08
1.266037e-08
3.6112755e-09
9.4433192e-10
2.2342733e-10
4.6367124e-11
8.0352275e-12
1.1387418e-12
2.2019277e-13
1.6023526e-13
1.702729e-13
0.00082804233
0.00023595576
0.00017133477
0.00010894426
7.6767417e-05
8.9105015e-05
7.6131635e-05
5.9499038e-05
4.3710878e-05
3.2074244e-05
2.3887928e-05
1.0438079e-05
5.4538975e-06
3.1696822e-06
1.7685345e-06
1.026725e-06
5.8370805e-07
2.9146497e-07
1.1651767e-07
4.0635696e-08
1.2696268e-08
3.6219456e-09
9.471597e-10
2.240981e-10
4.6505101e-11
8.0573319e-12
1.1398011e-12
2.1827414e-13
1.5786574e-13
1.6776918e-13
0.00082760779
0.00023699883
0.00017261119
0.00010981449
7.6770509e-05
8.8921476e-05
7.6020781e-05
5.9411052e-05
4.363254e-05
3.1999548e-05
2.3860071e-05
1.0429161e-05
5.4507761e-06
3.1671806e-06
1.76736e-06
1.026071e-06
5.8323931e-07
2.9099898e-07
1.1626732e-07
4.0529445e-08
1.2659389e-08
3.6108698e-09
9.4419558e-10
2.2339006e-10
4.6358248e-11
8.0327779e-12
1.1373863e-12
2.1890028e-13
1.5882508e-13
1.6878428e-13
0.00082717466
0.00023809846
0.00017368311
0.00011035973
7.6758645e-05
8.8785211e-05
7.5934683e-05
5.9333131e-05
4.3555358e-05
3.1929005e-05
2.3822973e-05
1.0414724e-05
5.4461587e-06
3.1632133e-06
1.7655654e-06
1.0251933e-06
5.827409e-07
2.907254e-07
1.161595e-07
4.049382e-08
1.2648558e-08
3.6078225e-09
9.4340471e-10
2.2320399e-10
4.6319738e-11
8.0259925e-12
1.1362604e-12
2.1850987e-13
1.5846126e-13
1.683986e-13
0.00082674272
0.00023895056
0.00017440187
0.00011074385
7.671512e-05
8.8660724e-05
7.5856894e-05
5.9259609e-05
4.3484944e-05
3.1863032e-05
2.3780464e-05
1.0396629e-05
5.4403908e-06
3.1589743e-06
1.7635378e-06
1.0241048e-06
5.8205861e-07
2.9024503e-07
1.1593718e-07
4.0408607e-08
1.2620474e-08
3.5995964e-09
9.4122872e-10
2.2268698e-10
4.6212445e-11
8.0075705e-12
1.1338461e-12
2.1824418e-13
1.5836134e-13
1.6829255e-13
0.00082631194
0.00023963908
0.00017494806
0.00011108274
7.6665959e-05
8.8544473e-05
7.5781507e-05
5.9188058e-05
4.3417398e-05
3.1800267e-05
2.37347e-05
1.0376413e-05
5.4339921e-06
3.1543413e-06
1.7612931e-06
1.0228886e-06
5.8130639e-07
2.8973398e-07
1.1570511e-07
4.0321055e-08
1.2591941e-08
3.591298e-09
9.3904298e-10
2.22169e-10
4.6105073e-11
7.9890804e-12
1.1313395e-12
2.1787398e-13
1.5814521e-13
1.680632e-13
0.00082588247
0.00024020454
0.00017539137
0.00011140203
7.661489e-05
8.8430783e-05
7.5707123e-05
5.9117729e-05
4.3351224e-05
3.1739048e-05
2.3686912e-05
1.0354859e-05
5.427191e-06
3.1495301e-06
1.7589414e-06
1.0216004e-06
5.8050614e-07
2.8918341e-07
1.1545377e-07
4.0225843e-08
1.2560822e-08
3.5822307e-09
9.3665193e-10
2.2160195e-10
4.5987477e-11
7.9688307e-12
1.1286025e-12
2.1747932e-13
1.5792063e-13
1.6782488e-13
0.00082545462
0.00024069041
0.00017577981
0.00011171147
7.6564416e-05
8.8318613e-05
7.5633408e-05
5.9048257e-05
4.3285938e-05
3.1678405e-05
2.3637845e-05
1.0332474e-05
5.4201453e-06
3.1446004e-06
1.7565237e-06
1.0202709e-06
5.7968074e-07
2.8861534e-07
1.1519456e-07
4.0127705e-08
1.2528761e-08
3.5728912e-09
9.3418959e-10
2.2101807e-10
4.5866396e-11
7.9479729e-12
1.1257733e-12
2.1706038e-13
1.5767537e-13
1.6756456e-13
0.00082502878
0.00024112671
0.00017613918
0.00011201673
7.6515325e-05
8.8207303e-05
7.5560099e-05
5.8979313e-05
4.3221205e-05
3.1618336e-05
2.3587983e-05
1.0309554e-05
5.4129433e-06
3.1396056e-06
1.7540706e-06
1.0189191e-06
5.7884141e-07
2.8803629e-07
1.1493017e-07
4.0027565e-08
1.2496038e-08
3.5633579e-09
9.3167604e-10
2.2042204e-10
4.5742791e-11
7.9266776e-12
1.1228814e-12
2.1662859e-13
1.5742038e-13
1.6729388e-13
0.00082460544
0.00024153365
0.00017648384
0.00011232077
7.6467973e-05
8.8096595e-05
7.548707e-05
5.8910717e-05
4.3156852e-05
3.1559102e-05
2.3537596e-05
1.0286284e-05
5.4056404e-06
3.1345734e-06
1.7515999e-06
1.0175569e-06
5.7799623e-07
2.8745238e-07
1.1466355e-07
3.9926586e-08
1.2463044e-08
3.553747e-09
9.2914231e-10
2.1982129e-10
4.5618218e-11
7.9052137e-12
1.119963e-12
2.1618888e-13
1.571583e-13
1.6701563e-13
0.00082418515
0.00024192398
0.00017682159
0.00011262508
7.6422441e-05
8.7986266e-05
7.5414242e-05
5.8842364e-05
4.3092763e-05
3.1500218e-05
2.3486847e-05
1.0262776e-05
5.39827e-06
3.1295216e-06
1.7491226e-06
1.0161916e-06
5.7714976e-07
2.868668e-07
1.1439613e-07
3.9825303e-08
1.2429953e-08
3.5441083e-09
9.2660151e-10
2.1921891e-10
4.5493312e-11
7.8836906e-12
1.1170338e-12
2.1574448e-13
1.5689158e-13
1.6673241e-13
0.00082376849
0.00024230555
0.0001771567
0.0001129304
7.6378748e-05
8.7876136e-05
7.5341567e-05
5.8774194e-05
4.3028862e-05
3.1441497e-05
2.3435833e-05
1.0239101e-05
5.3908528e-06
3.1244614e-06
1.7466461e-06
1.0148283e-06
5.7630527e-07
2.8628189e-07
1.1412903e-07
3.972416e-08
1.2396913e-08
3.5344862e-09
9.2406548e-10
2.1861774e-10
4.536867e-11
7.8622124e-12
1.1141083e-12
2.15298e-13
1.5662199e-13
1.6644613e-13
0.00082335611
0.00024268294
0.00017749132
0.00011323693
7.6336868e-05
8.7766097e-05
7.5269008e-05
5.8706175e-05
4.2965111e-05
3.138286e-05
2.3384613e-05
1.0215303e-05
5.3834008e-06
3.1193993e-06
1.7441743e-06
1.0134695e-06
5.754643e-07
2.8569874e-07
1.1386273e-07
3.9623316e-08
1.2363973e-08
3.5248944e-09
9.2153766e-10
2.1801856e-10
4.5244446e-11
7.8408052e-12
1.1111905e-12
2.1485047e-13
1.5635045e-13
1.6615773e-13
0.00082294867
0.00024305884
0.00017782652
0.00011354484
7.6296771e-05
8.765606e-05
7.5196542e-05
5.8638284e-05
4.2901484e-05
3.1324264e-05
2.3333207e-05
1.0191408e-05
5.3759217e-06
3.114339e-06
1.7417101e-06
1.0121173e-06
5.7462836e-07
2.8511849e-07
1.1359779e-07
3.9523011e-08
1.2331216e-08
3.5153577e-09
9.1902483e-10
2.1742303e-10
4.5120989e-11
7.8195301e-12
1.1082888e-12
2.1440317e-13
1.5607771e-13
1.6586805e-13
0.00082254688
0.00024343487
0.00017816285
0.00011385418
7.6258446e-05
8.7545963e-05
7.5124156e-05
5.8570506e-05
4.2837955e-05
3.1265682e-05
2.3281589e-05
1.016743e-05
5.3684194e-06
3.1092824e-06
1.7392549e-06
1.0107726e-06
5.73798e-07
2.8454156e-07
1.1333439e-07
3.9423304e-08
1.229866e-08
3.5058809e-09
9.1652813e-10
2.1683138e-10
4.4998348e-11
7.7983947e-12
1.1054042e-12
2.1395638e-13
1.5580402e-13
1.6557733e-13
0.00082215147
0.00024381202
0.00017850048
0.00011416488
7.6221815e-05
8.7435726e-05
7.5051845e-05
5.8502839e-05
4.2774519e-05
3.120709e-05
2.3229663e-05
1.0143371e-05
5.3608957e-06
3.104231e-06
1.7368097e-06
1.0094364e-06
5.7297398e-07
2.8396851e-07
1.1307282e-07
3.9324316e-08
1.2266347e-08
3.4964774e-09
9.1405128e-10
2.1624455e-10
4.4876718e-11
7.7774343e-12
1.1025419e-12
2.135111e-13
1.555301e-13
1.6528634e-13
0.0008217632
0.00024419078
0.00017883956
0.00011447696
7.6186877e-05
8.7325301e-05
7.4979588e-05
5.8435285e-05
4.2711172e-05
3.1148463e-05
2.3177189e-05
1.0119222e-05
5.3533505e-06
3.0991846e-06
1.7343746e-06
1.0081088e-06
5.7215619e-07
2.8339926e-07
1.1281301e-07
3.9226009e-08
1.2234262e-08
3.4871415e-09
9.1159258e-10
2.1566208e-10
4.4756003e-11
7.7566311e-12
1.0996994e-12
2.1306717e-13
1.5525599e-13
1.6499514e-13
0.00082138288
0.00024457142
0.00017918006
0.00011479043
7.6153605e-05
8.7214662e-05
7.4907373e-05
5.8367829e-05
4.2647905e-05
3.1089788e-05
2.3124269e-05
1.0094978e-05
5.3457833e-06
3.0941429e-06
1.7319498e-06
1.0067901e-06
5.713451e-07
2.8283425e-07
1.1255523e-07
3.91285e-08
1.2202447e-08
3.4778868e-09
9.0915588e-10
2.1508494e-10
4.463641e-11
7.7360221e-12
1.096882e-12
2.1262525e-13
1.54982e-13
1.6470404e-13
0.00082101132
0.00024495388
0.00017952187
0.00011510528
7.6121994e-05
8.7103771e-05
7.4835209e-05
5.8300485e-05
4.2584716e-05
3.1031054e-05
2.3070929e-05
1.0070628e-05
5.3381923e-06
3.0891049e-06
1.7295347e-06
1.00548e-06
5.7054049e-07
2.8227341e-07
1.1229941e-07
3.9031758e-08
1.2170891e-08
3.4687095e-09
9.0674003e-10
2.1451283e-10
4.4517873e-11
7.7155955e-12
1.0940878e-12
2.1218507e-13
1.5470798e-13
1.6441288e-13
0.00082064938
0.00024533791
0.00017986496
0.00011542156
7.6092038e-05
8.6992633e-05
7.4763086e-05
5.8233238e-05
4.2521602e-05
3.097225e-05
2.3017176e-05
1.0046165e-05
5.3305753e-06
3.0840702e-06
1.7271292e-06
1.0041786e-06
5.697426e-07
2.8171691e-07
1.1204569e-07
3.8935851e-08
1.2139619e-08
3.4596183e-09
9.0434757e-10
2.139464e-10
4.4400537e-11
7.6953773e-12
1.0913207e-12
2.117473e-13
1.5443436e-13
1.6412215e-13
0.00082029796
0.00024572326
0.0001802092
0.00011573926
7.6063747e-05
8.6881214e-05
7.4691013e-05
5.8166099e-05
4.2458565e-05
3.0913367e-05
2.2963064e-05
1.0021584e-05
5.3229297e-06
3.0790371e-06
1.7247322e-06
1.0028851e-06
5.6895084e-07
2.8116439e-07
1.1179386e-07
3.8840684e-08
1.2108597e-08
3.4506017e-09
9.0197526e-10
2.1338485e-10
4.4284227e-11
7.6753371e-12
1.0885767e-12
2.1131155e-13
1.5416106e-13
1.6383173e-13
0.00081995797
0.00024610994
0.00018055459
0.0001160584
7.6037124e-05
8.6769499e-05
7.4618974e-05
5.8099075e-05
4.2395606e-05
3.0854403e-05
2.2908589e-05
9.9968772e-06
5.3152532e-06
3.0740044e-06
1.7223431e-06
1.0015996e-06
5.6816541e-07
2.806161e-07
1.115441e-07
3.8746347e-08
1.2077859e-08
3.4416716e-09
8.9962656e-10
2.1282906e-10
4.4169137e-11
7.6555091e-12
1.0858603e-12
2.1087832e-13
1.5388824e-13
1.6354182e-13
0.00081963039
0.00024649799
0.00018090106
0.00011637896
7.6012186e-05
8.6657499e-05
7.4546963e-05
5.8032154e-05
4.2332723e-05
3.0795356e-05
2.28538e-05
9.9720429e-06
5.307543e-06
3.0689701e-06
1.7199608e-06
1.0003211e-06
5.6738576e-07
2.8007174e-07
1.1129625e-07
3.8652774e-08
1.2047382e-08
3.4328202e-09
8.9729928e-10
2.1227847e-10
4.4055149e-11
7.6358728e-12
1.0831687e-12
2.1044712e-13
1.5361559e-13
1.6325206e-13
0.0008193162
0.00024688739
0.00018124848
0.00011670091
7.5988914e-05
8.6545187e-05
7.4474992e-05
5.7965346e-05
4.226992e-05
3.0736223e-05
2.2798703e-05
9.9470771e-06
5.2997965e-06
3.0639335e-06
1.7175847e-06
9.9904957e-07
5.6661193e-07
2.7953139e-07
1.1105039e-07
3.8560011e-08
1.2017186e-08
3.4240547e-09
8.9499555e-10
2.1173367e-10
4.3942389e-11
7.6164515e-12
1.0805054e-12
2.1001867e-13
1.5334362e-13
1.6296301e-13
0.00081901641
0.00024727813
0.00018159687
0.00011702428
7.5967343e-05
8.6432582e-05
7.4403038e-05
5.7898645e-05
4.2207189e-05
3.0677003e-05
2.2743334e-05
9.9219784e-06
5.292011e-06
3.0588925e-06
1.7152132e-06
9.9778375e-07
5.6584308e-07
2.789945e-07
1.1080625e-07
3.8467934e-08
1.1987225e-08
3.4153607e-09
8.927114e-10
2.1119365e-10
4.383065e-11
7.5972086e-12
1.0778655e-12
2.0959239e-13
1.5307211e-13
1.6267444e-13
0.00081873209
0.00024767014
0.00018194619
0.00011734905
7.5947485e-05
8.6319687e-05
7.4331103e-05
5.7832052e-05
4.2144535e-05
3.0617698e-05
2.2687701e-05
9.896745e-06
5.2841844e-06
3.0538455e-06
1.7128455e-06
9.9652336e-07
5.6507925e-07
2.7846127e-07
1.1056397e-07
3.8376627e-08
1.1957533e-08
3.4067495e-09
8.9045013e-10
2.1065927e-10
4.3720116e-11
7.5781776e-12
1.0752535e-12
2.0916877e-13
1.5280121e-13
1.623865e-13
0.00081846432
0.0002480634
0.00018229647
0.00011767523
7.5929334e-05
8.6206494e-05
7.4259198e-05
5.7765575e-05
4.2081963e-05
3.0558308e-05
2.2631827e-05
9.8713757e-06
5.2763143e-06
3.0487905e-06
1.7104801e-06
9.9526733e-07
5.6431971e-07
2.7793128e-07
1.1032336e-07
3.8286002e-08
1.1928079e-08
3.3982116e-09
8.8820909e-10
2.1012987e-10
4.3610648e-11
7.5593341e-12
1.0726661e-12
2.0874728e-13
1.525306e-13
1.6209886e-13
0.00081821422
0.00024845795
0.00018264776
0.00011800282
7.5912939e-05
8.609304e-05
7.4187309e-05
5.7699206e-05
4.2019467e-05
3.0498833e-05
2.2575724e-05
9.8458693e-06
5.2683986e-06
3.0437266e-06
1.7081162e-06
9.9401532e-07
5.6356438e-07
2.7740455e-07
1.1008446e-07
3.8196099e-08
1.1898881e-08
3.3897535e-09
8.8599026e-10
2.0960599e-10
4.350237e-11
7.5407007e-12
1.0701066e-12
2.0832856e-13
1.5226071e-13
1.6181197e-13
0.00081798295
0.00024885388
0.00018300006
0.00011833182
7.5898269e-05
8.5979298e-05
7.4115452e-05
5.7632945e-05
4.1957048e-05
3.0439279e-05
2.2519407e-05
9.8202246e-06
5.2604352e-06
3.0386518e-06
1.705752e-06
9.9276593e-07
5.6281225e-07
2.768804e-07
1.0984693e-07
3.8106772e-08
1.1869887e-08
3.3813585e-09
8.8378903e-10
2.0908649e-10
4.3395036e-11
7.5222351e-12
1.0675694e-12
2.0791199e-13
1.5199134e-13
1.615256e-13
0.00081777169
0.00024925129
0.00018335334
0.00011866225
7.5885376e-05
8.5865258e-05
7.4043606e-05
5.75668e-05
4.1894712e-05
3.0379652e-05
2.2462889e-05
9.7944412e-06
5.2524226e-06
3.0335645e-06
1.7033867e-06
9.9151875e-07
5.6206327e-07
2.7635899e-07
1.0961091e-07
3.8018096e-08
1.1841127e-08
3.3730374e-09
8.816086e-10
2.085722e-10
4.3288831e-11
7.5039701e-12
1.065059e-12
2.0749806e-13
1.5172263e-13
1.6123994e-13
0.00081758165
0.00024965028
0.00018370761
0.00011899411
7.5874252e-05
8.5750945e-05
7.3971776e-05
5.7500762e-05
4.1832458e-05
3.0319958e-05
2.2406184e-05
9.7685182e-06
5.2443594e-06
3.0284629e-06
1.7010187e-06
9.9027257e-07
5.6131656e-07
2.7583981e-07
1.0937615e-07
3.7929964e-08
1.1812564e-08
3.3647783e-09
8.7944565e-10
2.080623e-10
4.3183581e-11
7.4858755e-12
1.0625712e-12
2.0708609e-13
1.5145416e-13
1.6095451e-13
0.00081741408
0.00025005083
0.00018406283
0.00011932737
7.5864898e-05
8.5636318e-05
7.3899976e-05
5.7434839e-05
4.1770281e-05
3.0260201e-05
2.2349302e-05
9.7424544e-06
5.2362444e-06
3.0233465e-06
1.6986471e-06
9.8902701e-07
5.6057202e-07
2.753228e-07
1.0914267e-07
3.7842407e-08
1.1784213e-08
3.3565871e-09
8.7730202e-10
2.0755728e-10
4.30794e-11
7.4679724e-12
1.0601093e-12
2.066768e-13
1.5118648e-13
1.6066992e-13
0.00081727026
0.0002504528
0.00018441901
0.00011966209
7.5857362e-05
8.5521398e-05
7.3828172e-05
5.7369029e-05
4.1708181e-05
3.0200385e-05
2.2292255e-05
9.7162471e-06
5.2280763e-06
3.0182135e-06
1.6962703e-06
9.8778055e-07
5.598285e-07
2.7480724e-07
1.0891009e-07
3.7755257e-08
1.1756012e-08
3.3484444e-09
8.751723e-10
2.070558e-10
4.2976e-11
7.4502107e-12
1.0576665e-12
2.0626944e-13
1.5091932e-13
1.6038586e-13
0.00081715148
0.00025085593
0.00018477614
0.0001199983
7.585164e-05
8.5406189e-05
7.3756389e-05
5.7303326e-05
4.1646163e-05
3.0140522e-05
2.2235053e-05
9.6898938e-06
5.2198547e-06
3.0130625e-06
1.6938873e-06
9.8653282e-07
5.59086e-07
2.7429331e-07
1.0867857e-07
3.7668601e-08
1.1727998e-08
3.3403623e-09
8.7306003e-10
2.0655879e-10
4.2873585e-11
7.4326268e-12
1.0552479e-12
2.0586459e-13
1.5065288e-13
1.6010257e-13
0.00081705907
0.00025126007
0.00018513422
0.00012033606
7.5847763e-05
8.5290664e-05
7.3684622e-05
5.723774e-05
4.1584225e-05
3.008062e-05
2.2177706e-05
9.6633906e-06
5.2115794e-06
3.0078919e-06
1.6914966e-06
9.8528255e-07
5.5834357e-07
2.7378046e-07
1.0844783e-07
3.7582321e-08
1.1700128e-08
3.3323274e-09
8.7096148e-10
2.060653e-10
4.2771953e-11
7.4151854e-12
1.0528485e-12
2.0546146e-13
1.5038668e-13
1.598195e-13
0.00081699438
0.00025166531
0.00018549324
0.00012067538
7.5845769e-05
8.5174857e-05
7.3612861e-05
5.7172272e-05
4.1522367e-05
3.0020685e-05
2.2120222e-05
9.6367315e-06
5.2032503e-06
3.0027013e-06
1.6890976e-06
9.8402942e-07
5.5760114e-07
2.7326865e-07
1.0821791e-07
3.7496455e-08
1.167242e-08
3.3243466e-09
8.6887876e-10
2.055759e-10
4.2671234e-11
7.3979106e-12
1.050472e-12
2.0506081e-13
1.5012129e-13
1.5953729e-13
0.00081695879
0.00025207181
0.00018585317
0.00012101623
7.5845653e-05
8.5058752e-05
7.3541125e-05
5.7106918e-05
4.1460589e-05
2.9960727e-05
2.206261e-05
9.6099084e-06
5.1948678e-06
2.9974892e-06
1.6866884e-06
9.8277184e-07
5.5685747e-07
2.7275709e-07
1.0798839e-07
3.7410814e-08
1.1644805e-08
3.3163976e-09
8.6680562e-10
2.0508905e-10
4.2571094e-11
7.3807435e-12
1.0481105e-12
2.0466178e-13
1.498564e-13
1.592556e-13
0.00081695369
0.00025247964
0.00018621404
0.00012135866
7.5847465e-05
8.4942354e-05
7.346939e-05
5.7041678e-05
4.1398888e-05
2.9900756e-05
2.2004879e-05
9.5829128e-06
5.1864335e-06
2.9922546e-06
1.6842685e-06
9.8150952e-07
5.5611257e-07
2.7224598e-07
1.0775943e-07
3.7325493e-08
1.1617322e-08
3.3084937e-09
8.6474591e-10
2.0460572e-10
4.2471751e-11
7.3637232e-12
1.0457694e-12
2.0426496e-13
1.495922e-13
1.5897465e-13
0.00081698048
0.0002528888
0.00018657589
0.00012170262
7.5851197e-05
8.4825668e-05
7.3397672e-05
5.6976556e-05
4.1337261e-05
2.984077e-05
2.194706e-05
9.5557718e-06
5.1779499e-06
2.9869959e-06
1.6818362e-06
9.8024118e-07
5.5536548e-07
2.7173473e-07
1.0753074e-07
3.7240358e-08
1.1589921e-08
3.3006193e-09
8.626953e-10
2.0412483e-10
4.2372969e-11
7.3468081e-12
1.0434429e-12
2.0386945e-13
1.4932818e-13
1.5869386e-13
0.00081704059
0.00025329927
0.00018693873
0.00012204817
7.5856867e-05
8.4708684e-05
7.3325972e-05
5.6911547e-05
4.1275702e-05
2.9780725e-05
2.1889224e-05
9.5285846e-06
5.1694192e-06
2.9817132e-06
1.6793912e-06
9.7896667e-07
5.546162e-07
2.7122334e-07
1.0730237e-07
3.7155457e-08
1.1562626e-08
3.2927824e-09
8.6065617e-10
2.0364703e-10
4.2274893e-11
7.3300248e-12
1.0411349e-12
2.0347613e-13
1.49065e-13
1.5841397e-13
0.00081713548
0.00025371098
0.00018730255
0.00012239534
7.5864546e-05
8.4591421e-05
7.3254272e-05
5.6846656e-05
4.1214214e-05
2.9720625e-05
2.1831381e-05
9.5013555e-06
5.1608414e-06
2.9764047e-06
1.6769319e-06
9.7768436e-07
5.5386344e-07
2.7071098e-07
1.0707386e-07
3.707058e-08
1.1535357e-08
3.284958e-09
8.5862149e-10
2.0317053e-10
4.2177141e-11
7.3133059e-12
1.0388365e-12
2.03084e-13
1.4880228e-13
1.5813458e-13
0.0008172666
0.0002541239
0.00018766731
0.00012274414
7.5874213e-05
8.4473868e-05
7.3182596e-05
5.6781891e-05
4.1152801e-05
2.9660478e-05
2.1773539e-05
9.4740904e-06
5.1522173e-06
2.9710699e-06
1.6744577e-06
9.7639416e-07
5.5310739e-07
2.7019792e-07
1.0684542e-07
3.6985843e-08
1.1508162e-08
3.2771616e-09
8.5659571e-10
2.0269648e-10
4.2079963e-11
7.296696e-12
1.0365537e-12
2.0269374e-13
1.485403e-13
1.5785595e-13
0.00081743542
0.00025453805
0.00018803301
0.00012309459
7.5885936e-05
8.4356056e-05
7.311093e-05
5.6717241e-05
4.109146e-05
2.960029e-05
2.1715708e-05
9.4467942e-06
5.1435469e-06
2.9657073e-06
1.6719673e-06
9.7509488e-07
5.5234707e-07
2.6968359e-07
1.0661675e-07
3.6901109e-08
1.148099e-08
3.2693769e-09
8.5457423e-10
2.0222372e-10
4.1983105e-11
7.2801498e-12
1.0342802e-12
2.0230436e-13
1.4827843e-13
1.5757745e-13
0.00081764342
0.00025495353
0.00018839955
0.00012344667
7.589971e-05
8.4237971e-05
7.3039283e-05
5.6652716e-05
4.1030195e-05
2.9540064e-05
2.1657896e-05
9.4194718e-06
5.1348309e-06
2.9603175e-06
1.6694606e-06
9.7378652e-07
5.515826e-07
2.6916806e-07
1.0638794e-07
3.6816435e-08
1.1453865e-08
3.2616129e-09
8.5255974e-10
2.0175295e-10
4.1886726e-11
7.2636965e-12
1.0320203e-12
2.0191681e-13
1.4801742e-13
1.5729986e-13
0.00081789207
0.00025537046
0.00018876693
0.00012380036
7.5915547e-05
8.4119613e-05
7.2967655e-05
5.658832e-05
4.0969003e-05
2.9479802e-05
2.1600109e-05
9.392127e-06
5.1260695e-06
2.9548994e-06
1.6669362e-06
9.7246757e-07
5.5081273e-07
2.6865048e-07
1.0615853e-07
3.6731611e-08
1.1426711e-08
3.2538444e-09
8.5054505e-10
2.0128237e-10
4.1790433e-11
7.2472663e-12
1.0297647e-12
2.0153002e-13
1.4775685e-13
1.5702273e-13
0.00081818286
0.00025578889
0.00018913517
0.00012415566
7.5933498e-05
8.4001013e-05
7.2896045e-05
5.6524046e-05
4.0907882e-05
2.9419511e-05
2.1542354e-05
9.3647647e-06
5.1172638e-06
2.9494525e-06
1.6643937e-06
9.7113809e-07
5.5003772e-07
2.6813119e-07
1.0592874e-07
3.6646759e-08
1.1399573e-08
3.246087e-09
8.4853469e-10
2.0081312e-10
4.1694478e-11
7.2309041e-12
1.0275194e-12
2.011447e-13
1.4749701e-13
1.5674638e-13
0.00081851727
0.00025620873
0.00018950432
0.00012451261
7.5953556e-05
8.3882148e-05
7.2824456e-05
5.64599e-05
4.084684e-05
2.9359197e-05
2.1484638e-05
9.3373897e-06
5.1084144e-06
2.9439763e-06
1.6618322e-06
9.6979702e-07
5.4925666e-07
2.6760963e-07
1.0569828e-07
3.6561744e-08
1.1372403e-08
3.2383246e-09
8.4652407e-10
2.0034404e-10
4.1598605e-11
7.2145642e-12
1.0252781e-12
2.0075987e-13
1.472373e-13
1.5647016e-13
0.00081889677
0.00025662971
0.00018987443
0.00012487131
7.5975787e-05
8.3763047e-05
7.2752881e-05
5.6395881e-05
4.0785872e-05
2.9298857e-05
2.1426967e-05
9.3100059e-06
5.0995222e-06
2.9384715e-06
1.659252e-06
9.6844456e-07
5.4846975e-07
2.6708589e-07
1.0546724e-07
3.6476621e-08
1.1345225e-08
3.2305659e-09
8.4451578e-10
1.9987581e-10
4.1502966e-11
7.198274e-12
1.0230448e-12
2.0037638e-13
1.4697839e-13
1.561948e-13
0.00081932283
0.00025705155
0.00019024537
0.00012523174
7.6000194e-05
8.3643708e-05
7.2681338e-05
5.6331997e-05
4.072498e-05
2.9238497e-05
2.1369346e-05
9.2826168e-06
5.0905879e-06
2.9329376e-06
1.6566518e-06
9.6707938e-07
5.4767584e-07
2.6655917e-07
1.0523516e-07
3.6391182e-08
1.131796e-08
3.2227853e-09
8.4250247e-10
1.9940657e-10
4.1407156e-11
7.1819617e-12
1.0208099e-12
1.9999323e-13
1.4671995e-13
1.5591994e-13
0.00081979689
0.00025747413
0.00019061707
0.0001255939
7.6026807e-05
8.3524145e-05
7.2609819e-05
5.6268248e-05
4.0664171e-05
2.9178129e-05
2.131178e-05
9.2552272e-06
5.0816131e-06
2.9273746e-06
1.6540319e-06
9.6570182e-07
5.4687537e-07
2.6602991e-07
1.0500233e-07
3.6305567e-08
1.1290661e-08
3.2150003e-09
8.4048918e-10
1.9893759e-10
4.1311451e-11
7.1656763e-12
1.0185799e-12
1.9961113e-13
1.4646225e-13
1.5564586e-13
0.00082032041
0.00025789752
0.00019098955
0.00012595781
7.6055648e-05
8.3404363e-05
7.2538331e-05
5.6204638e-05
4.0603444e-05
2.9117756e-05
2.1254274e-05
9.2278407e-06
5.072599e-06
2.9217824e-06
1.6513915e-06
9.6431106e-07
5.4606756e-07
2.6549763e-07
1.0476847e-07
3.6219648e-08
1.1263281e-08
3.2071952e-09
8.3847135e-10
1.984677e-10
4.1215595e-11
7.1493713e-12
1.0163484e-12
1.9922905e-13
1.4620463e-13
1.5537188e-13
0.00082089479
0.00025832176
0.00019136275
0.00012632343
7.6086742e-05
8.328438e-05
7.2466875e-05
5.6141163e-05
4.0542795e-05
2.9057376e-05
2.1196833e-05
9.200461e-06
5.0635468e-06
2.9161622e-06
1.6487314e-06
9.6290756e-07
5.4525279e-07
2.649625e-07
1.0453373e-07
3.6133497e-08
1.1235849e-08
3.19938e-09
8.3645194e-10
1.9799767e-10
4.1119755e-11
7.1330772e-12
1.0141197e-12
1.9884794e-13
1.4594785e-13
1.5509879e-13
0.00082152143
0.00025874683
0.00019173666
0.00012669079
7.6120107e-05
8.3164192e-05
7.2395444e-05
5.6077828e-05
4.0482228e-05
2.8996996e-05
2.1139461e-05
9.1730911e-06
5.0544578e-06
2.910514e-06
1.6460506e-06
9.6149024e-07
5.4443008e-07
2.6442384e-07
1.0429767e-07
3.6046922e-08
1.1208292e-08
3.1915308e-09
8.3442407e-10
1.9752575e-10
4.1023548e-11
7.1167257e-12
1.0118847e-12
1.9846678e-13
1.456915e-13
1.5482619e-13
0.00082220169
0.00025917266
0.00019211124
0.00012705988
7.6155751e-05
8.3043799e-05
7.2324056e-05
5.6014639e-05
4.0421749e-05
2.8936624e-05
2.108216e-05
9.1457352e-06
5.0453337e-06
2.9048382e-06
1.6433497e-06
9.6005965e-07
5.4359994e-07
2.638821e-07
1.0406061e-07
3.5960062e-08
1.1180663e-08
3.1836647e-09
8.323926e-10
1.9705316e-10
4.0927241e-11
7.1003636e-12
1.0096497e-12
1.9808623e-13
1.4543585e-13
1.5455432e-13
0.0008229369
0.00025959918
0.00019248634
0.00012743071
7.6193729e-05
8.2923241e-05
7.2252703e-05
5.5951595e-05
4.0361359e-05
2.8876262e-05
2.1024936e-05
9.1183959e-06
5.0361759e-06
2.8991351e-06
1.6406284e-06
9.5861519e-07
5.4276175e-07
2.6333687e-07
1.0382228e-07
3.5872801e-08
1.1152917e-08
3.1757671e-09
8.303533e-10
1.9657881e-10
4.0830591e-11
7.0839471e-12
1.0074084e-12
1.9770533e-13
1.4518028e-13
1.5428255e-13
0.00082372837
0.00026002624
0.00019286189
0.00012780332
7.6234016e-05
8.2802497e-05
7.2181384e-05
5.5888698e-05
4.0301058e-05
2.8815914e-05
2.096779e-05
9.0910765e-06
5.0269858e-06
2.8934065e-06
1.6378876e-06
9.5715756e-07
5.4191603e-07
2.627884e-07
1.0358284e-07
3.5785216e-08
1.1125085e-08
3.1678482e-09
8.2830912e-10
1.9610346e-10
4.0733765e-11
7.0675061e-12
1.0051652e-12
1.9732502e-13
1.4492554e-13
1.5401167e-13
0.00082457736
0.00026045376
0.00019323785
0.00012817761
7.6276621e-05
8.2681584e-05
7.2110108e-05
5.5825946e-05
4.0240843e-05
2.8755585e-05
2.0910726e-05
9.0637789e-06
5.0177648e-06
2.8876524e-06
1.6351269e-06
9.5568592e-07
5.4106193e-07
2.6223606e-07
1.0334193e-07
3.569713e-08
1.1097099e-08
3.1598859e-09
8.2625365e-10
1.9562547e-10
4.0636404e-11
7.0509764e-12
1.0029114e-12
1.969443e-13
1.4467124e-13
1.5374126e-13
0.00082548506
0.00026088174
0.00019361411
0.00012855352
7.6321592e-05
8.256054e-05
7.2038876e-05
5.5763348e-05
4.0180721e-05
2.869528e-05
2.0853746e-05
9.0365066e-06
5.0085149e-06
2.8818738e-06
1.632347e-06
9.5420101e-07
5.4020015e-07
2.6168042e-07
1.0309986e-07
3.5608693e-08
1.1069015e-08
3.1518978e-09
8.2419193e-10
1.951461e-10
4.0538777e-11
7.0344055e-12
1.0006534e-12
1.9656383e-13
1.4441758e-13
1.5347156e-13
0.00082645266
0.0002613102
0.00019399079
0.00012893085
7.6368937e-05
8.2439331e-05
7.1967688e-05
5.5700905e-05
4.0120695e-05
2.8635006e-05
2.0796854e-05
9.0092617e-06
4.9992376e-06
2.8760714e-06
1.6295478e-06
9.5270251e-07
5.3933023e-07
2.6112115e-07
1.0285644e-07
3.5519806e-08
1.1040795e-08
3.1438713e-09
8.2212021e-10
1.9466438e-10
4.044067e-11
7.017754e-12
9.9838548e-13
1.9618275e-13
1.4416406e-13
1.5320201e-13
0.00082748127
0.00026173912
0.00019436784
0.00012930983
7.6418686e-05
8.2317979e-05
7.189654e-05
5.5638612e-05
4.0060762e-05
2.8574761e-05
2.0740052e-05
8.9820461e-06
4.9899345e-06
2.8702469e-06
1.6267308e-06
9.5119132e-07
5.3845282e-07
2.6055858e-07
1.0261184e-07
3.5430559e-08
1.1012472e-08
3.1358176e-09
8.2004169e-10
1.9418112e-10
4.0342259e-11
7.0010536e-12
9.9611222e-13
1.9580193e-13
1.439113e-13
1.5293328e-13
0.00082857193
0.0002621684
0.000194745
0.00012969038
7.6470833e-05
8.2196519e-05
7.1825444e-05
5.5576475e-05
4.0000925e-05
2.851455e-05
2.0683341e-05
8.9548595e-06
4.980607e-06
2.8644009e-06
1.6238955e-06
9.496668e-07
5.3756726e-07
2.5999221e-07
1.0236575e-07
3.5340797e-08
1.0983988e-08
3.1277167e-09
8.1795062e-10
1.9369485e-10
4.0243219e-11
6.9842458e-12
9.9382569e-13
1.9542045e-13
1.4365896e-13
1.5266501e-13
0.00082972564
0.00026259781
0.00019512231
0.00013007263
7.6525396e-05
8.2074906e-05
7.17544e-05
5.5514497e-05
3.9941188e-05
2.8454381e-05
2.0626725e-05
8.927705e-06
4.971257e-06
2.8585345e-06
1.6210429e-06
9.4812985e-07
5.3667429e-07
2.5942259e-07
1.0211851e-07
3.5250669e-08
1.0955396e-08
3.1195864e-09
8.15852e-10
1.9320681e-10
4.0143818e-11
6.9673778e-12
9.9153215e-13
1.95039e-13
1.4340726e-13
1.5239743e-13
0.00083094334
0.00026302703
0.00019549982
0.00013045661
7.6582392e-05
8.1953148e-05
7.1683389e-05
5.5452674e-05
3.988155e-05
2.8394258e-05
2.0570204e-05
8.9005859e-06
4.9618861e-06
2.8526484e-06
1.6181733e-06
9.4658028e-07
5.3577355e-07
2.5884949e-07
1.0186993e-07
3.5160089e-08
1.0926664e-08
3.1114153e-09
8.1374244e-10
1.9271613e-10
4.0043861e-11
6.9504138e-12
9.8922643e-13
1.9465671e-13
1.4315566e-13
1.5212996e-13
0.00083222588
0.00026345569
0.00019587719
0.00013084198
7.6641807e-05
8.1831336e-05
7.1612435e-05
5.5391009e-05
3.9822009e-05
2.833418e-05
2.0513783e-05
8.8735046e-06
4.9524961e-06
2.8467449e-06
1.615288e-06
9.4501912e-07
5.348658e-07
2.5827325e-07
1.0162022e-07
3.5069149e-08
1.0897826e-08
3.1032148e-09
8.1162523e-10
1.9222363e-10
3.9943527e-11
6.9333859e-12
9.8691317e-13
1.9427447e-13
1.429048e-13
1.518633e-13
0.00083357405
0.00026388372
0.00019625419
0.00013122881
7.670364e-05
8.170945e-05
7.1541551e-05
5.5329509e-05
3.9762568e-05
2.8274149e-05
2.0457461e-05
8.8464637e-06
4.9430884e-06
2.8408242e-06
1.6123869e-06
9.434459e-07
5.3395048e-07
2.5769344e-07
1.0136908e-07
3.4977703e-08
1.0868825e-08
3.0949658e-09
8.094948e-10
1.9172789e-10
3.9842503e-11
6.9162379e-12
9.8458472e-13
1.9389142e-13
1.4265438e-13
1.5159712e-13
0.00083498856
0.00026431121
0.00019663104
0.00013161747
7.6767919e-05
8.1587393e-05
7.1470702e-05
5.5268163e-05
3.9703231e-05
2.8214172e-05
2.0401241e-05
8.8194657e-06
4.9336649e-06
2.8348878e-06
1.6094711e-06
9.4186166e-07
5.3302848e-07
2.5711072e-07
1.0111689e-07
3.4885923e-08
1.0839723e-08
3.0866885e-09
8.0735684e-10
1.9123033e-10
3.9741094e-11
6.8990232e-12
9.822482e-13
1.9350833e-13
1.4240463e-13
1.5133168e-13
0.00083647003
0.00026473798
0.00019700772
0.00013200784
7.6834666e-05
8.1465204e-05
7.1399895e-05
5.5206974e-05
3.9643994e-05
2.8154255e-05
2.0345125e-05
8.7925138e-06
4.9242271e-06
2.8289362e-06
1.6065409e-06
9.4026629e-07
5.320995e-07
2.5652489e-07
1.008635e-07
3.4793728e-08
1.081049e-08
3.0783719e-09
8.052081e-10
1.9073011e-10
3.9639111e-11
6.8817073e-12
9.7989854e-13
1.9312426e-13
1.4215493e-13
1.5106627e-13
0.00083801902
0.00026516372
0.00019738377
0.00013239939
7.6903833e-05
8.1342982e-05
7.132915e-05
5.5145948e-05
3.9584862e-05
2.8094398e-05
2.0289116e-05
8.7656106e-06
4.9147769e-06
2.8229717e-06
1.6035977e-06
9.3866093e-07
5.3116439e-07
2.5593636e-07
1.0060914e-07
3.4701226e-08
1.0781166e-08
3.0700295e-09
8.0305248e-10
1.902282e-10
3.9536769e-11
6.8643288e-12
9.7754127e-13
1.9274023e-13
1.4190599e-13
1.5080171e-13
0.00083963598
0.00026558831
0.00019775892
0.00013279204
7.6975403e-05
8.1220721e-05
7.1258468e-05
5.5085089e-05
3.9525835e-05
2.8034604e-05
2.0233213e-05
8.738759e-06
4.9053154e-06
2.8169948e-06
1.6006414e-06
9.3704513e-07
5.302226e-07
2.5534471e-07
1.0035353e-07
3.4608273e-08
1.0751693e-08
3.0616421e-09
8.0088437e-10
1.8972317e-10
3.9433751e-11
6.8468308e-12