/*--------------------------------*- C++ -*----------------------------------*\
| =========                 |                                                 |
| \\      /  F ield         | OpenFOAM: The Open Source CFD Toolbox           |
|  \\    /   O peration     | Version:  v2012                                 |
|   \\  /    A nd           | Website:  www.openfoam.com                      |
|    \\/     M anipulation  |                                                 |
\*---------------------------------------------------------------------------*/
FoamFile
{
    version     2.0;
    format      ascii;
    class       volScalarField;
    location    "450";
    object      k;
}
// * * * * * * * * * * * * * * * * * * * * * * * * * * * * * * * * * * * * * //

dimensions      [0 2 -2 0 0 0 0];


internalField   nonuniform List<scalar> 
24000
(
0.098229876
0.11210498
0.12566256
0.14826092
0.26641335
0.77700947
1.6704895
2.4958137
2.7837132
2.3678579
1.6343658
1.1571526
1.3886275
1.7345679
1.7032284
1.401443
0.99954872
0.62101149
0.34133466
0.17285479
0.08275144
0.037838172
0.016491213
0.0067700958
0.002562531
0.00086828852
0.00026667195
0.00013084308
0.00032983029
0.0023735818
0.098232289
0.11209392
0.12561262
0.14805958
0.26481441
0.77032675
1.6596231
2.4836769
2.7739988
2.3623337
1.6317877
1.1547408
1.3844658
1.7298979
1.7001763
1.4000409
0.99919242
0.62107366
0.34150167
0.17299984
0.082846651
0.037891312
0.016517546
0.006781929
0.0025674529
0.00087040372
0.0002682263
0.00013393501
0.00034136101
0.0024564472
0.098240169
0.11208618
0.12557064
0.14788498
0.26362736
0.76580645
1.6528013
2.475762
2.766982
2.3576406
1.6293671
1.153307
1.3816161
1.7261768
1.6974215
1.3986006
0.99879291
0.62133609
0.34187845
0.17327693
0.08300709
0.037973063
0.016555642
0.0067982429
0.0025737296
0.00087237457
0.00026835428
0.00013271218
0.00033618756
0.0024191596
0.098247549
0.11207939
0.12553369
0.14772303
0.26251728
0.76144305
1.6458989
2.4673299
2.7594532
2.3521707
1.6259698
1.1512628
1.3791563
1.7226774
1.6942362
1.3961287
0.99695633
0.6200115
0.3410405
0.17280362
0.082764471
0.037857271
0.016503776
0.0067765825
0.0025654795
0.00086966065
0.00026776525
0.00013308083
0.00033819231
0.0024336648
0.098254592
0.11207304
0.12549838
0.14756376
0.26143694
0.75715804
1.638962
2.4590866
2.7519542
2.3463913
1.6220397
1.1489725
1.37697
1.7194851
1.6911277
1.39367
0.99527013
0.61901661
0.34054295
0.17257823
0.082665476
0.037814734
0.016486021
0.006769505
0.0025628474
0.0008687645
0.00026745203
0.00013282015
0.00033736008
0.0024276697
0.098261446
0.11206733
0.12546462
0.14740725
0.26037945
0.75292668
1.6320385
2.4509679
2.7444365
2.3404155
1.6177988
1.14648
1.3749371
1.7165107
1.688041
1.3910336
0.99327921
0.61767423
0.3397682
0.17217533
0.082470009
0.037724775
0.016446686
0.0067533315
0.0025567273
0.00086670764
0.00026686408
0.00013264861
0.00033712058
0.0024259749
0.09826826
0.11206214
0.12543185
0.14725278
0.25933829
0.74873442
1.6251419
2.4429276
2.7369174
2.3343263
1.6133713
1.1438818
1.3730107
1.7136735
1.684986
1.3883478
0.99121773
0.61627931
0.33896681
0.17176203
0.082271239
0.037633975
0.01640721
0.0067371645
0.0025506232
0.00086465181
0.00026625729
0.00013241512
0.00033663829
0.0024225247
0.098275136
0.11205739
0.1253998
0.1471001
0.25831049
0.74457405
1.6182696
2.4349405
2.7294035
2.3281718
1.6088284
1.1412155
1.3711517
1.7109291
1.6819564
1.3856265
0.9890922
0.61481852
0.33811792
0.17132066
0.082057787
0.037536104
0.016364555
0.0067196683
0.0025440108
0.00086242428
0.00026560192
0.0001321695
0.00033614474
0.0024189955
0.098282146
0.11205302
0.12536829
0.14694903
0.25729409
0.74044051
1.6114183
2.4269922
2.721897
2.3219793
1.6042133
1.138508
1.3693374
1.7082473
1.6789503
1.3828933
0.98693897
0.61332977
0.33724986
0.17086855
0.081838966
0.037435744
0.016320813
0.0067017269
0.0025372302
0.00086013924
0.00026492738
0.00013191037
0.00033561036
0.0024151715
0.098289337
0.11204896
0.12533722
0.14679943
0.25628782
0.7363306
1.6045859
2.4190737
2.714399
2.3157641
1.599556
1.1357745
1.3675526
1.7056095
1.6759651
1.3801578
0.98477169
0.61182458
0.33636969
0.17040933
0.081616475
0.03733364
0.016276296
0.0066834647
0.0025303275
0.00085781264
0.00026423983
0.0001316443
0.00033505748
0.0024112136
0.098296742
0.11204521
0.12530654
0.14665119
0.25529082
0.73224219
1.5977709
2.4111793
2.70691
2.3095354
1.5948722
1.1330241
1.3657875
1.7030032
1.6729989
1.3774274
0.98260131
0.61031353
0.33548485
0.16994733
0.08139256
0.037230872
0.016231491
0.0066650848
0.0025233806
0.00085547091
0.00026354701
0.00013137388
0.0003344907
0.0024071549
0.098304385
0.11204174
0.12527623
0.14650422
0.25430243
0.72817384
1.5909722
2.4033053
2.6994303
2.3033004
1.5901707
1.1302621
1.3640355
1.7004201
1.6700501
1.374706
0.98043386
0.60880221
0.33459905
0.16948461
0.081168246
0.037127913
0.016186602
0.006646671
0.002516421
0.00085312469
0.00026285223
0.00013110091
0.00033391476
0.0024030294
0.098312285
0.11203854
0.12524627
0.14635847
0.25332222
0.72412454
1.5841893
2.3954491
2.69196
2.297063
1.5854566
1.1274918
1.3622921
1.6978545
1.6671174
1.371996
0.9782735
0.60729467
0.33371514
0.16902281
0.08094439
0.037025175
0.016141815
0.0066283014
0.0025094786
0.00085078423
0.00026215861
0.00013082681
0.00033333313
0.0023988622
0.098320457
0.11203563
0.12521667
0.1462139
0.25234985
0.72009359
1.5774216
2.387609
2.684499
2.2908253
1.5807317
1.1247152
1.360554
1.6953024
1.6641997
1.3692986
0.97612234
0.60579286
0.33283437
0.16856261
0.080721302
0.036922792
0.016097185
0.006609997
0.0025025612
0.00084845201
0.00026146695
0.00013055215
0.00033274753
0.0023946656
0.098328915
0.112033
0.12518742
0.14607047
0.25138506
0.71608047
1.5706689
2.3797837
2.6770472
2.2845885
1.5759946
1.1219329
1.3588189
1.6927608
1.6612959
1.3666149
0.97398226
0.60429874
0.33195818
0.16810488
0.080499448
0.036820995
0.016052819
0.0065918032
0.0024956862
0.0008461341
0.00026077909
0.00013027765
0.00033215945
0.0023904505
0.098337674
0.11203066
0.12515854
0.14592817
0.25042766
0.71208481
1.5639309
2.3719724
2.6696045
2.2783528
1.5712388
1.1191451
1.3570848
1.6902275
1.6584052
1.363945
0.971854
0.60281307
0.33108707
0.16764986
0.080278945
0.036719832
0.016008734
0.0065737268
0.002488856
0.00084383122
0.00026009524
0.00013000344
0.00033156931
0.0023862199
0.098346749
0.11202862
0.12513003
0.14578696
0.24947748
0.70810631
1.5572076
2.3641745
2.6621708
2.2721178
1.5664482
1.1163508
1.3553503
1.6877005
1.6555266
1.3612892
0.9697383
0.60133672
0.33022172
0.16719799
0.080060035
0.036619428
0.015964989
0.0065557934
0.0024820807
0.00084154691
0.00025941651
0.00012973009
0.00033097857
0.0023819843
0.098356154
0.1120269
0.12510191
0.14564685
0.24853441
0.70414475
1.5504987
2.3563895
2.6547462
2.2658831
1.5615887
1.1135477
1.3536139
1.6851783
1.6526594
1.358647
0.9676351
0.59986964
0.32936203
0.16674918
0.079842638
0.036519731
0.015921559
0.0065379903
0.0024753551
0.00083927933
0.00025874239
0.00012945754
0.00033038734
0.0023777445
0.098365904
0.1120255
0.12507418
0.14550782
0.24759834
0.7002
1.5438042
2.3486171
2.6473305
2.2596485
1.5566732
1.1107346
1.3518744
1.6826596
1.6498025
1.3560185
0.96554487
0.59841252
0.3285086
0.16630381
0.079626992
0.036420868
0.015878503
0.0065203445
0.0024686899
0.00083703221
0.00025807398
0.00012918611
0.00032979617
0.0023735046
0.098376016
0.11202443
0.12504686
0.14536988
0.24666919
0.69627191
1.537124
2.3408571
2.6399238
2.2534136
1.5517061
1.1079098
1.3501307
1.680143
1.6469552
1.3534031
0.96346734
0.59696521
0.32766132
0.16586182
0.079413039
0.036322804
0.015835803
0.0065028476
0.0024620818
0.00083480435
0.00025741091
0.00012891568
0.00032920477
0.0023692624
0.098386506
0.11202371
0.12501997
0.14523301
0.24574691
0.69236042
1.5304581
2.3331092
2.6325262
2.2471782
1.5466882
1.1050721
1.3483817
1.6776275
1.6441164
1.3508003
0.96140249
0.59552795
0.32682046
0.16542341
0.079200917
0.036225619
0.0157935
0.0064855178
0.0024555381
0.0008325984
0.00025675401
0.00012864662
0.00032861403
0.0023650243
0.098397391
0.11202335
0.1249935
0.14509722
0.24483143
0.68846549
1.5238065
2.3253734
2.6251377
2.2409425
1.5416274
1.1022205
1.3466265
1.6751119
1.6412853
1.3482094
0.95934962
0.5941001
0.32598555
0.16498826
0.078990436
0.036129208
0.015751543
0.0064683327
0.0024490499
0.00083041125
0.0002561024
0.00012837871
0.00032802378
0.0023607892
0.09840869
0.11202336
0.12496748
0.14496252
0.24392272
0.68458713
1.5171692
2.3176496
2.6177584
2.2347064
1.5365238
1.0993542
1.3448643
1.6725952
1.6384608
1.3456298
0.95730872
0.59268201
0.32515697
0.16455668
0.078781787
0.036033678
0.015709985
0.0064513164
0.002442627
0.00082824637
0.0002554571
0.00012811224
0.00032743434
0.0023565594
0.098420421
0.11202376
0.12494193
0.1448289
0.24302074
0.68072544
1.510546
2.3099378
2.6103885
2.2284702
1.5313843
1.0964728
1.3430941
1.6700763
1.635642
1.3430606
0.95527912
0.59127314
0.32433436
0.16412843
0.078574836
0.035938959
0.015668792
0.006434454
0.0024362635
0.0008261017
0.00025481747
0.00012784693
0.00032684505
0.00235233
0.098432603
0.11202456
0.12491684
0.14469638
0.24212546
0.67688049
1.5039369
2.302238
2.6030282
2.2222342
1.5262104
1.0935759
1.3413152
1.6675543
1.6328278
1.3405012
0.9532604
0.58987345
0.3235178
0.16370365
0.078369682
0.035845114
0.015627998
0.006417761
0.0024299658
0.00082397959
0.00025418428
0.00012758318
0.00032625699
0.0023481089
0.098445256
0.11202577
0.12489225
0.14456496
0.24123688
0.67305239
1.497342
2.2945501
2.5956775
2.2159989
1.5210072
1.0906633
1.339527
1.6650283
1.6300172
1.3379503
0.95125158
0.58848203
0.32270666
0.16328189
0.07816608
0.03575201
0.015587539
0.00640121
0.0024237231
0.00082187631
0.00025355645
0.00012732068
0.00032566973
0.002343893
0.0984584
0.11202741
0.12486815
0.14443464
0.24035497
0.66924128
1.4907611
2.2868742
2.5883366
2.2097645
1.5157766
1.0877349
1.3377287
1.6624973
1.627209
1.3354073
0.9492524
0.58709906
0.32190122
0.16286343
0.077964199
0.035659748
0.015547466
0.0063848242
0.002417545
0.00081979526
0.00025293499
0.00012705969
0.00032508352
0.0023396842
0.098472056
0.1120295
0.12484458
0.14430544
0.2394797
0.66544718
1.4841943
2.2792103
2.5810058
2.2035318
1.5105218
1.0847907
1.3359199
1.6599605
1.6244022
1.3328712
0.94726195
0.58572382
0.32110099
0.16244795
0.077763872
0.03556824
0.015507738
0.0063685854
0.0024114243
0.00081773395
0.00025231914
0.00012679992
0.00032449774
0.0023354779
0.098486244
0.11203204
0.12482154
0.14417736
0.23861104
0.66167016
1.4776414
2.2715584
2.5736853
2.1973011
1.5052452
1.0818308
1.3341
1.6574169
1.6215957
1.3303408
0.94527962
0.58435609
0.32030597
0.16203555
0.077565177
0.03547754
0.015468384
0.0063525082
0.0024053672
0.00081569467
0.00025170964
0.00012654172
0.00032391326
0.0023312803
0.098500986
0.11203505
0.12479905
0.14405041
0.23774897
0.65791023
1.4711027
2.2639185
2.5663752
2.1910731
1.4999491
1.0788554
1.3322684
1.6548658
1.6187885
1.327815
0.94330418
0.58299479
0.31951538
0.1616257
0.077367824
0.035387495
0.015429332
0.0063365606
0.0023993611
0.0008136731
0.00025110527
0.00012628477
0.00032332969
0.0023270889
0.098516304
0.11203855
0.12477714
0.1439246
0.23689346
0.65416735
1.464578
2.2562905
2.5590758
2.1848484
1.4946359
1.0758645
1.3304249
1.6523063
1.6159793
1.3252928
0.94133522
0.58163995
0.31872943
0.16121864
0.077171968
0.035298198
0.015390629
0.0063207651
0.0023934153
0.00081167254
0.00025050698
0.00012602932
0.0003227473
0.0023229055
0.098532219
0.11204254
0.1247558
0.14379994
0.23604449
0.65044159
1.4580673
2.2486747
2.5517872
2.1786279
1.4893078
1.0728586
1.328569
1.6497378
1.6131672
1.3227732
0.93937164
0.58029068
0.3179475
0.16081399
0.076977398
0.03520954
0.015352224
0.006305099
0.0023875208
0.0008096899
0.00024991386
0.00012577498
0.00032216525
0.0023187238
0.098548757
0.11204706
0.12473507
0.14367644
0.23520203
0.64673291
1.4515707
2.2410708
2.5445097
2.1724124
1.4839669
1.0698379
1.3267003
1.6471593
1.610351
1.320255
0.93741271
0.57894666
0.31716953
0.16041178
0.076784175
0.035121566
0.015314144
0.0062895756
0.0023816834
0.00080772732
0.00024932662
0.00012552218
0.00032158465
0.0023145522
0.098565939
0.1120521
0.12471497
0.14355412
0.23436608
0.64304133
1.4450881
2.233479
2.5372434
2.1662025
1.4786149
1.0668026
1.3248189
1.6445703
1.6075298
1.3177369
0.93545709
0.57760667
0.31639462
0.16001143
0.076591959
0.035034098
0.015276302
0.0062741571
0.0023758881
0.00080577967
0.00024874378
0.00012527049
0.000321005
0.002310387
0.098583788
0.11205769
0.12469549
0.14343298
0.23353659
0.63936693
1.4386197
2.2258992
2.5299884
2.1599992
1.4732539
1.0637532
1.3229243
1.6419702
1.6047024
1.3152182
0.93350443
0.5762708
0.31562303
0.1596132
0.076400927
0.034947239
0.015238752
0.0062588683
0.0023701452
0.00080385058
0.00024816642
0.00012502022
0.00032042667
0.0023062308
0.098602327
0.11206384
0.12467668
0.14331303
0.23271357
0.63570963
1.4321653
2.2183313
2.522745
2.1538034
1.4678853
1.0606899
1.3210164
1.6393582
1.6018679
1.3126976
0.93155358
0.57493812
0.31485409
0.15921667
0.076210843
0.034860866
0.015201436
0.0062436832
0.0023644444
0.00080193645
0.00024759344
0.00012477093
0.00031984866
0.0023020765
0.098621578
0.11207057
0.12465853
0.14319429
0.23189699
0.63206954
1.4257251
2.2107755
2.5155133
2.1476159
1.4625107
1.0576129
1.3190952
1.6367337
1.5990253
1.3101741
0.92960383
0.5736083
0.31408777
0.1588219
0.076021781
0.034775033
0.015164382
0.0062286169
0.0023587921
0.00080003969
0.00024702566
0.00012452305
0.00031927215
0.0022979325
0.098641564
0.11207788
0.12464108
0.14307677
0.23108684
0.62844665
1.4192989
2.2032316
2.5082932
2.1414377
1.4571312
1.0545224
1.3171607
1.6340963
1.5961737
1.3076464
0.92765378
0.57228005
0.31332305
0.15842823
0.075833357
0.034689536
0.015127494
0.0062136257
0.0023531709
0.00079815428
0.00024646131
0.00012427611
0.00031869657
0.0022937949
0.098662307
0.1120858
0.12462432
0.14296048
0.23028312
0.62484098
1.4128869
2.1956996
2.501085
2.1352698
1.4517482
1.0514187
1.315213
1.6314455
1.593312
1.3051138
0.9257031
0.57095345
0.31256023
0.15803594
0.075645759
0.034604485
0.015090828
0.0061987362
0.0023475919
0.00079628412
0.00024590157
0.00012403041
0.00031812226
0.0022896662
0.098683829
0.11209433
0.12460829
0.14284543
0.22948579
0.62125261
1.4064891
2.1881796
2.4938886
2.129112
1.4463633
1.0483037
1.3132523
1.6287807
1.5904396
1.3025751
0.92375063
0.56962754
0.31179859
0.15764455
0.075458719
0.03451974
0.015054316
0.0061839181
0.0023420428
0.00079442495
0.00024534512
0.00012378545
0.00031754816
0.0022855385
0.098706151
0.11210349
0.124593
0.14273163
0.22869486
0.61768152
1.4001055
2.1806715
2.486704
2.1229614
1.4409797
1.0451819
1.3112789
1.6261013
1.5875553
1.3000295
0.92179575
0.56830205
0.3110381
0.15725417
0.07527233
0.034435363
0.015017992
0.0061691882
0.0023365309
0.00079257943
0.00024479287
0.00012354173
0.00031697563
0.0022814219
0.098729296
0.1121133
0.12457846
0.1426191
0.22791032
0.6141278
1.3937362
2.1731752
2.4795314
2.1168185
1.4355985
1.0420539
1.3092927
1.6234072
1.5846586
1.2974756
0.91983705
0.56697559
0.3102777
0.15686405
0.075086161
0.034351124
0.014981746
0.0061544972
0.0023310363
0.00079074066
0.0002442428
0.0001232987
0.00031640401
0.0022773116
0.098753283
0.11212376
0.1245647
0.14250785
0.22713215
0.61059149
1.3873811
2.1656908
2.4723708
2.1106837
1.430221
1.0389205
1.3072937
1.6206977
1.5817486
1.2949131
0.91787439
0.56564844
0.30951778
0.15647455
0.074900441
0.034267156
0.014945643
0.0061398755
0.0023255717
0.0007889131
0.00024369622
0.00012305671
0.00031583371
0.0022732107
0.098778134
0.11213489
0.12455171
0.14239788
0.22636036
0.60707262
1.3810403
2.1582183
2.4652222
2.1045573
1.4248481
1.0357822
1.3052819
1.6179726
1.5788246
1.2923408
0.91590671
0.56431965
0.30875762
0.15608519
0.074714892
0.034183308
0.014909612
0.0061252907
0.0023201239
0.0007870921
0.00024315172
0.0001228152
0.00031526354
0.0022691104
0.098803868
0.11214669
0.12453954
0.14228922
0.22559493
0.60357127
1.3747139
2.1507577
2.4580858
2.0984397
1.4194809
1.0326396
1.3032573
1.6152313
1.5758859
1.2897581
0.91393351
0.56298905
0.30799728
0.15569611
0.074529627
0.034099655
0.014873692
0.0061107617
0.0023147009
0.00078528058
0.00024261026
0.00012257473
0.00031469499
0.0022650217
0.098830504
0.11215919
0.12452817
0.14218186
0.22483586
0.60008747
1.368402
2.1433089
2.4509616
2.0923314
1.4141202
1.0294931
1.3012201
1.6124739
1.5729321
1.287164
0.91195352
0.56165532
0.30723569
0.15530657
0.074344212
0.034015963
0.014837769
0.0060962377
0.0023092822
0.00078347141
0.00024206975
0.00012233468
0.00031412728
0.0022609389
0.098858059
0.11217237
0.12451764
0.14207583
0.22408313
0.59662129
1.3621045
2.1358719
2.4438497
2.0862325
1.4087668
1.0263435
1.2991703
1.6097
1.5699624
1.284558
0.90996671
0.56031881
0.3064733
0.15491694
0.074158886
0.033932368
0.014801911
0.0060817498
0.0023038806
0.00078166904
0.00024153151
0.00012209544
0.00031356091
0.0022568658
0.098886551
0.11218627
0.12450795
0.14197112
0.22333673
0.59317278
1.3558216
2.1284469
2.4367501
2.0801433
1.4034215
1.0231912
1.297108
1.6069094
1.5669766
1.2819395
0.90797217
0.55897865
0.30570942
0.15452675
0.073973375
0.033848722
0.014766046
0.0060672654
0.0022984827
0.00077986881
0.00024099411
0.00012185645
0.0003129947
0.0022527935
0.098915997
0.11220087
0.12449911
0.14186775
0.22259667
0.58974201
1.3495533
2.1210337
2.4296628
2.0740641
1.398085
1.0200367
1.2950333
1.6041019
1.5639742
1.2793078
0.90596953
0.55763471
0.30494411
0.15413614
0.073787787
0.033765095
0.014730212
0.0060528025
0.0022930963
0.00077807346
0.00024045843
0.0001216182
0.00031243
0.0022487322
0.09894641
0.1122162
0.12449114
0.14176572
0.22186292
0.58632903
1.3432997
2.1136324
2.4225879
2.0679951
1.3927578
1.0168805
1.2929466
1.6012778
1.5609548
1.2766623
0.90395768
0.55628579
0.30417636
0.15374439
0.07360169
0.033681251
0.014694293
0.0060383091
0.0022877002
0.00077627564
0.00023992235
0.00012138013
0.00031186623
0.0022446777
0.098977805
0.11223224
0.12448403
0.14166504
0.22113548
0.58293389
1.3370609
2.1062431
2.4155255
2.0619366
1.3874407
1.0137231
1.2908478
1.5984367
1.5579184
1.2740028
0.90193688
0.55493241
0.30340673
0.15335194
0.073415358
0.033597345
0.014658365
0.0060238196
0.0022823085
0.00077448022
0.00023938729
0.00012114262
0.00031130382
0.002240633
0.099010194
0.11224901
0.12447781
0.14156571
0.22041432
0.57955665
1.3308368
2.0988656
2.4084755
2.0558888
1.382134
1.0105649
1.2887374
1.595579
1.5548646
1.271329
0.89990646
0.55357388
0.30263461
0.15295835
0.073228531
0.033513232
0.014622356
0.0060093017
0.0022769079
0.00077268249
0.00023885178
0.00012090509
0.0003107415
0.002236589
0.099043587
0.11226651
0.12447247
0.14146773
0.21969944
0.57619736
1.3246277
2.0915001
2.401438
2.0498519
1.3768384
1.0074064
1.2866154
1.5927045
1.5517935
1.2686407
0.89786633
0.55221026
0.30186019
0.15256382
0.073041348
0.033428997
0.014586311
0.0059947756
0.0022715068
0.00077088548
0.00023831682
0.00012066808
0.00031018076
0.0022325565
0.099077993
0.11228473
0.12446802
0.14137111
0.21899081
0.57285609
1.3184336
2.0841467
2.3944132
2.043826
1.3715541
1.004248
1.2844822
1.5898137
1.548705
1.2659373
0.89581564
0.55084052
0.30108256
0.1521677
0.072853409
0.033344421
0.014550122
0.0059801926
0.0022660855
0.00076908221
0.00023778035
0.00012043101
0.0003096209
0.0022285305
0.09911342
0.11230368
0.12446447
0.14127584
0.21828842
0.56953289
1.3122545
2.0768053
2.3874009
2.0378114
1.3662817
1.0010901
1.2823382
1.5869067
1.5455992
1.2632192
0.89375483
0.5494653
0.30030232
0.15177042
0.072664988
0.033259653
0.014513861
0.0059655858
0.0022606572
0.00076727736
0.00023724373
0.00012019425
0.00030906232
0.002224514
0.099149873
0.11232335
0.1244618
0.14118192
0.21759225
0.5662278
1.3060906
2.0694759
2.3804013
2.0318081
1.3610214
0.99793322
1.2801836
1.5839838
1.5424764
1.260486
0.89168344
0.54808401
0.29951895
0.15137161
0.072475847
0.033174562
0.014477464
0.0059509252
0.0022552097
0.00076546649
0.00023670557
0.00011995724
0.00030850383
0.0022204983
0.099187355
0.11234374
0.12446004
0.14108935
0.21690228
0.56294089
1.2999419
2.0621587
2.3734145
2.0258163
1.3557736
0.9947776
1.2780187
1.5810452
1.5393365
1.2577381
0.88960157
0.54669686
0.29873268
0.15097149
0.072286134
0.033089236
0.014440974
0.005936231
0.0022497512
0.00076365257
0.00023616686
0.00011972052
0.00030794692
0.0022164942
0.099225869
0.11236485
0.12445916
0.14099812
0.21621847
0.55967218
1.2938086
2.0548537
2.3664404
2.0198362
1.3505385
0.99162365
1.2758441
1.5780915
1.53618
1.254975
0.88750866
0.54530299
0.29794273
0.15056945
0.072095484
0.03300347
0.014404291
0.0059214577
0.0022442632
0.00076182906
0.00023562566
0.00011948355
0.00030739089
0.0022124968
0.099265413
0.11238665
0.12445917
0.14090822
0.21554079
0.55642172
1.2876906
2.047561
2.3594792
2.013868
1.3453165
0.98847174
1.27366
1.5751231
1.5330072
1.2521975
0.88540538
0.54390322
0.29714978
0.15016601
0.071904191
0.032917425
0.014367492
0.0059066397
0.0022387595
0.00076000073
0.00023508333
0.00011924666
0.00030683607
0.0022085084
0.099305985
0.11240916
0.12446007
0.14081964
0.2148692
0.55318954
1.2815881
2.0402805
2.3525309
2.0079117
1.3401077
0.98532223
1.2714669
1.5721403
1.5298185
1.2494056
0.88329155
0.54249716
0.29635345
0.14976083
0.071712054
0.032830986
0.01433052
0.0058917503
0.0022332291
0.0007581636
0.00023453864
0.00011900938
0.00030628146
0.0022045217
0.099347579
0.11243234
0.12446183
0.14073236
0.21420369
0.54997568
1.2755011
2.0330123
2.3455956
2.0019675
1.3349125
0.98217545
1.269265
1.5691437
1.5266143
1.2465997
0.88116753
0.5410852
0.29555408
0.1493542
0.071519248
0.032744252
0.014293423
0.0058768116
0.0022276808
0.00075632083
0.0002339926
0.00011877219
0.00030572831
0.0022005459
0.099390189
0.11245619
0.12446447
0.14064638
0.21354419
0.54678016
1.2694298
2.0257565
2.3386733
1.9960355
1.3297311
0.97903171
1.2670549
1.5661338
1.5233951
1.2437798
0.87903298
0.53966668
0.29475101
0.1489456
0.071325451
0.032657042
0.014256112
0.0058617826
0.002222098
0.00075446649
0.00023344343
0.00011853461
0.00030517599
0.0021965766
0.099433804
0.1124807
0.12446795
0.14056166
0.21289067
0.54360299
1.2633741
2.0185131
2.3317641
1.9901157
1.3245635
0.97589132
1.264837
1.5631112
1.5201614
1.2409466
0.87688871
0.53824248
0.29394497
0.14853554
0.071130961
0.032569517
0.014218663
0.0058466978
0.0022164943
0.00075260535
0.00023289252
0.00011829698
0.00030462491
0.0021926164
0.099478413
0.11250584
0.12447227
0.1404782
0.21224308
0.5404442
1.2573342
2.0112821
2.324868
1.9842084
1.3194101
0.97275459
1.2626116
1.5600763
1.5169139
1.2381006
0.87473468
0.53681233
0.29313564
0.14812375
0.070935603
0.032481575
0.014181025
0.005831533
0.0022108599
0.00075073377
0.00023233873
0.00011805882
0.00030407394
0.0021886573
0.099524
0.11253159
0.12447741
0.14039595
0.21160136
0.53730375
1.25131
2.0040636
2.317985
1.9783136
1.314271
0.96962184
1.2603792
1.5570296
1.5136529
1.235242
0.8725714
0.53537672
0.29232341
0.14771053
0.07073956
0.032393318
0.014143249
0.0058163111
0.0022052038
0.00074885503
0.00023178308
0.00011782064
0.00030352443
0.0021847092
0.099570548
0.11255794
0.12448335
0.1403149
0.21096543
0.53418164
1.2453017
1.9968574
2.3111153
1.9724314
1.3091463
0.96649332
1.2581402
1.553972
1.5103792
1.2323713
0.8703987
0.53393508
0.2915077
0.1472954
0.070542528
0.032304576
0.014105249
0.0058009928
0.00219951
0.00074696341
0.00023122388
0.00011758198
0.00030297582
0.002180768
0.099618037
0.11258485
0.12449006
0.14023501
0.21033524
0.53107789
1.2393092
1.9896638
2.3042587
1.9665618
1.3040362
0.96336935
1.255895
1.5509037
1.5070933
1.2294893
0.86821758
0.53248851
0.29068935
0.14687895
0.070344851
0.03221553
0.014067112
0.0057856172
0.0021937942
0.00074506432
0.00023066271
0.00011734324
0.00030242851
0.0021768367
0.099666445
0.1126123
0.12449752
0.14015626
0.20971076
0.52799247
1.2333327
1.9824827
2.2974155
1.960705
1.2989408
0.96025017
1.253644
1.5478255
1.503796
1.2265964
0.86602813
0.53103681
0.28986811
0.14646093
0.070146367
0.032126086
0.01402879
0.0057701614
0.0021880468
0.00074315431
0.00023009843
0.0001171039
0.00030188123
0.0021729058
0.099715745
0.11264027
0.1245057
0.1400786
0.20909188
0.52492533
1.2273721
1.975314
2.2905855
1.954861
1.2938603
0.95713608
1.2513876
1.5447379
1.5004876
1.2236932
0.86383097
0.52958058
0.28904447
0.14604172
0.069947295
0.032036366
0.013990344
0.0057546527
0.0021822788
0.00074123728
0.0002295323
0.00011686453
0.00030133545
0.0021689861
0.09976591
0.11266872
0.12451458
0.140002
0.2084785
0.52187641
1.2214275
1.9681577
2.2837687
1.9490298
1.2887947
0.95402731
1.2491262
1.5416414
1.4971691
1.22078
0.861626
0.52811932
0.28821786
0.14562083
0.069747336
0.031946199
0.013951686
0.0057390517
0.0021764741
0.0007393075
0.00022896259
0.00011662465
0.00030079047
0.0021650728
0.09981691
0.11269762
0.12452412
0.13992642
0.20787056
0.5188457
1.2154989
1.9610138
2.2769653
1.9432115
1.2837441
0.95092415
1.2468603
1.5385367
1.4938409
1.2178577
0.85941426
0.52665415
0.28738916
0.14519888
0.069546849
0.031855777
0.013912912
0.0057234001
0.0021706494
0.00073737081
0.00022839101
0.00011638468
0.00030024674
0.0021611689
0.099868711
0.11272693
0.12453429
0.1398518
0.20726799
0.51583313
1.2095863
1.9538823
2.2701751
1.9374061
1.2787086
0.9478268
1.2445902
1.5354243
1.4905037
1.2149268
0.85719586
0.52518489
0.28655813
0.14477563
0.069345675
0.031765008
0.013873972
0.0057076753
0.0021647953
0.00073542379
0.00022781646
0.00011614412
0.000299703
0.0021572651
0.099921277
0.11275663
0.12454505
0.13977811
0.2066707
0.51283864
1.2036897
1.9467632
2.2633981
1.9316136
1.2736883
0.94473549
1.2423162
1.5323046
1.487158
1.2119878
0.85497142
0.52371216
0.28572527
0.14435148
0.06914405
0.031674024
0.013834932
0.0056919074
0.0021589241
0.00073347078
0.0002272403
0.00011590359
0.0002991608
0.0021533728
0.099974569
0.11278667
0.12455636
0.13970529
0.20607857
0.50986214
1.197809
1.9396564
2.2566344
1.925834
1.2686832
0.94165043
1.2400389
1.5291785
1.4838046
1.2090411
0.8527408
0.52223539
0.28488996
0.1439259
0.06894165
0.031582639
0.0137957
0.0056760537
0.0021530183
0.00073150563
0.0002266607
0.00011566255
0.00029861935
0.0021494865
0.10002855
0.11281701
0.12456819
0.13963328
0.20549149
0.50690353
1.1919442
1.9325617
2.2498838
1.9200674
1.2636934
0.93857186
1.2377586
1.5260463
1.4804441
1.2060875
0.85050513
0.52075581
0.28405319
0.14349958
0.068738868
0.031491066
0.013756379
0.0056601606
0.0021470965
0.00072953482
0.00022607954
0.00011542149
0.00029807919
0.0021456098
0.10008317
0.11284761
0.12458049
0.13956204
0.20490937
0.50396273
1.1860954
1.9254791
2.2431464
1.9143137
1.2587189
0.93549996
1.2354755
1.5229086
1.477077
1.2031276
0.84826454
0.51927327
0.28321471
0.14307228
0.068535551
0.031399213
0.013716921
0.0056442055
0.0021411494
0.00072755496
0.00022549575
0.00011517989
0.00029753901
0.0021417332
0.10013838
0.11287842
0.12459321
0.1394915
0.20433211
0.50103964
1.1802624
1.9184085
2.2364219
1.908573
1.2537598
0.93243492
1.2331901
1.5197658
1.4737039
1.2001618
0.84601968
0.51778842
0.28237507
0.14264441
0.06833195
0.031307221
0.013677397
0.0056282209
0.0021351901
0.00072557075
0.00022491079
0.00011493841
0.00029700034
0.0021378678
0.10019414
0.11290942
0.12460631
0.1394216
0.20375959
0.49813412
1.1744452
1.9113498
2.2297105
1.902845
1.2488161
0.92937689
1.2309027
1.5166187
1.4703254
1.1971906
0.84377034
0.51630067
0.28153363
0.14221546
0.068127735
0.031214903
0.013637712
0.0056121635
0.0021292011
0.00072357596
0.0002243228
0.00011469648
0.00029646238
0.002134008
0.1002504
0.11294054
0.12461975
0.13935228
0.20319168
0.49524604
1.1686437
1.9043028
2.2230118
1.8971299
1.2438878
0.92632608
1.2286137
1.5134675
1.4669421
1.1942146
0.84151763
0.51481121
0.28069135
0.14178608
0.067923299
0.03112247
0.013597971
0.00559608
0.0021232012
0.00072157718
0.00022373372
0.00011445462
0.00029592572
0.0021301578
0.10030711
0.11297173
0.12463346
0.13928347
0.20262825
0.49237527
1.1628579
1.8972674
2.2163258
1.8914274
1.2389749
0.92328264
1.2263234
1.5103128
1.4635546
1.1912344
0.83926159
0.51331983
0.27984795
0.14135604
0.067718475
0.031029827
0.013558123
0.0055799468
0.0021171805
0.00071957086
0.0002231424
0.00011421227
0.0002953889
0.0021263066
0.1003642
0.11300296
0.1246474
0.1392151
0.20206919
0.48952164
1.1570876
1.8902433
2.2096524
1.8857377
1.2340774
0.92024672
1.2240319
1.5071551
1.4601633
1.1882504
0.83700286
0.51182716
0.27900397
0.14092572
0.067513512
0.03093711
0.013518238
0.0055637961
0.0021111521
0.00071756171
0.00022255032
0.00011397012
0.00029485362
0.0021224669
0.10042163
0.11303418
0.12466151
0.1391471
0.20151435
0.48668501
1.1513327
1.8832303
2.2029914
1.8800605
1.2291953
0.91721842
1.2217399
1.503995
1.4567688
1.1852629
0.83474121
0.51033257
0.27815873
0.14049459
0.067308064
0.030844127
0.013478218
0.005547583
0.002105098
0.00071554327
0.00022195558
0.00011372761
0.00029431908
0.0021186329
0.10047933
0.11306532
0.12467574
0.13907939
0.20096361
0.48386521
1.1455932
1.8762284
2.1963426
1.8743957
1.2243285
0.91419791
1.2194473
1.5008327
1.4533718
1.1822728
0.83247779
0.50883732
0.27731325
0.14006335
0.067102547
0.0307511
0.013438172
0.0055313567
0.0020990378
0.0007135225
0.00022136021
0.00011348527
0.0002937859
0.0021148089
0.10053724
0.11309634
0.12469003
0.13901191
0.20041683
0.48106204
1.1398689
1.869237
2.1897057
1.8687431
1.2194771
0.91118531
1.2171547
1.4976688
1.4499727
1.1792805
0.83021267
0.50734122
0.27646725
0.13963175
0.066896794
0.030657931
0.013398051
0.0055150935
0.0020929617
0.00071149581
0.00022076304
0.00011324252
0.00029325254
0.0021109838
0.10059531
0.11312719
0.12470433
0.13894458
0.19987386
0.47827533
1.1341596
1.8622562
2.1830805
1.8631028
1.214641
0.90818072
1.2148621
1.4945037
1.446572
1.1762865
0.82794646
0.5058449
0.27562129
0.1392002
0.066691059
0.030564764
0.013357925
0.0054988263
0.0020868832
0.00070946806
0.00022016561
0.00011300005
0.00029272069
0.0021071699
0.10065347
0.11315782
0.12471858
0.13887731
0.19933456
0.47550488
1.1284653
1.8552855
2.176467
1.8574745
1.20982
0.90518419
1.2125699
1.4913379
1.4431702
1.1732911
0.82567892
0.50434773
0.27477469
0.13876817
0.066485004
0.030471407
0.013317698
0.0054825111
0.0020807843
0.00070743286
0.00021956602
0.00011275731
0.00029218954
0.0021033613
0.10071166
0.11318817