/*--------------------------------*- C++ -*----------------------------------*\
| =========                 |                                                 |
| \\      /  F ield         | OpenFOAM: The Open Source CFD Toolbox           |
|  \\    /   O peration     | Version:  v2012                                 |
|   \\  /    A nd           | Website:  www.openfoam.com                      |
|    \\/     M anipulation  |                                                 |
\*---------------------------------------------------------------------------*/
FoamFile
{
    version     2.0;
    format      ascii;
    class       volScalarField;
    location    "450";
    object      Ma;
}
// * * * * * * * * * * * * * * * * * * * * * * * * * * * * * * * * * * * * * //

dimensions      [0 0 0 0 0 0 0];


internalField   nonuniform List<scalar> 
24000
(
0.042367635
0.042692253
0.043372083
0.044214136
0.045021499
0.044358192
0.042686984
0.041055591
0.039657295
0.038186551
0.036405847
0.033984547
0.030650424
0.026924097
0.023179357
0.019648012
0.016463201
0.01366017
0.011233039
0.009158879
0.0074027081
0.0059237698
0.0046823533
0.0036425592
0.002772975
0.0020465375
0.0014401488
0.00093422143
0.00051222355
0.00016025403
0.042353973
0.042680055
0.043363388
0.044213807
0.045037462
0.044389461
0.04271515
0.041074098
0.039666806
0.038189728
0.036406261
0.033986187
0.030656281
0.026934748
0.023194589
0.019667821
0.016487579
0.013689305
0.011266972
0.0091970675
0.0074438111
0.0059658296
0.004723196
0.0036801916
0.0028058383
0.0020736052
0.0014609111
0.00094860972
0.00052051022
0.00016295488
0.042341531
0.042666752
0.043346549
0.044189014
0.045003772
0.044359479
0.042687452
0.041046171
0.039639137
0.03816256
0.036379789
0.033962109
0.030636355
0.026919085
0.023182326
0.019657934
0.016478757
0.013680218
0.011256483
0.0091845697
0.0074294048
0.0059501883
0.0047072901
0.0036650202
0.0027922441
0.0020621901
0.0014520254
0.00094238101
0.00051688959
0.00016176425
0.042328097
0.04265259
0.043330141
0.044169227
0.044984871
0.044348995
0.042677046
0.04103265
0.039622568
0.038143996
0.036360105
0.033942751
0.030619652
0.026906001
0.023172617
0.019651209
0.016474563
0.013678266
0.011256628
0.0091866613
0.0074331616
0.005955106
0.0047127836
0.0036705396
0.0027973441
0.0020665554
0.0014554659
0.00094481296
0.00051831155
0.00016223416
0.042314322
0.042637986
0.043313353
0.044149501
0.044966614
0.044338647
0.042666219
0.04101789
0.039604393
0.038123422
0.036337886
0.033919941
0.030598438
0.026887732
0.023157378
0.019638857
0.016464662
0.013670318
0.011250161
0.0091812455
0.0074284518
0.0059509561
0.0047091521
0.0036674292
0.0027947644
0.002064507
0.0014539343
0.00094376957
0.00051771683
0.00016204148
0.042300285
0.042623195
0.043296706
0.044130549
0.044949806
0.044329858
0.042656853
0.041004252
0.039587042
0.038103397
0.036315862
0.033896812
0.030576339
0.026868256
0.023140784
0.019625129
0.016453489
0.013661336
0.011243041
0.0091756914
0.0074241896
0.0059477379
0.004706762
0.0036656854
0.0027935183
0.0020636408
0.001453357
0.00094341221
0.00051752833
0.00016198455
0.042286102
0.042608328
0.04328018
0.044111974
0.044933493
0.044321569
0.042647959
0.040990946
0.039569806
0.038083307
0.036293539
0.033873043
0.030553201
0.026847477
0.023122749
0.019609929
0.016440889
0.013651002
0.011234646
0.0091689314
0.0074187843
0.0059434485
0.0047033919
0.0036630743
0.0027915355
0.0020621793
0.0014523288
0.00094274489
0.00051716196
0.00016186967
0.042271839
0.042593444
0.043263763
0.044093677
0.044917505
0.044313589
0.042639422
0.040977856
0.039552732
0.038063245
0.03627111
0.03384896
0.030529503
0.026825986
0.023103925
0.019593929
0.016427526
0.013639976
0.011225652
0.0091616751
0.0074129858
0.0059388601
0.0046998024
0.0036603078
0.0027894463
0.0020606477
0.0014512567
0.00094205207
0.00051678299
0.00016175125
0.042257537
0.042578569
0.043247421
0.044075551
0.044901649
0.04430575
0.042631096
0.040964912
0.039535708
0.038043173
0.036248582
0.03382464
0.030505414
0.026803998
0.023084554
0.019577372
0.016413629
0.013628455
0.011216213
0.0091540262
0.0074068478
0.0059339827
0.0046959719
0.0036573446
0.0027872012
0.002058997
0.0014500984
0.00094130198
0.000516372
0.00016162262
0.042243221
0.042563712
0.043231146
0.044057519
0.044885878
0.044298011
0.042622895
0.040952025
0.039518713
0.038023096
0.036225995
0.033800161
0.030481067
0.026781683
0.023064826
0.019560454
0.016399384
0.013616614
0.011206488
0.0091461308
0.007400502
0.0059289344
0.0046920038
0.0036542732
0.0027848732
0.002057285
0.0014488968
0.00094052383
0.00051594559
0.00016148915
0.042228903
0.042548873
0.043214921
0.044039553
0.044870126
0.044290305
0.042614792
0.040939206
0.039501762
0.038003017
0.03620336
0.033775567
0.030456537
0.026759147
0.023044855
0.019543291
0.016384905
0.013604557
0.01119657
0.0091380678
0.0073940141
0.005923768
0.0046879397
0.0036511254
0.0027824861
0.0020555287
0.0014476638
0.00093972502
0.00051550775
0.00016135207
0.04221459
0.042534052
0.043198731
0.044021612
0.044854379
0.044282611
0.042606738
0.040926415
0.039484834
0.037982941
0.036180691
0.033750891
0.03043188
0.026736456
0.023024718
0.019525962
0.016370266
0.013592353
0.01118652
0.0091298903
0.0073874288
0.0059185206
0.0046838097
0.0036479253
0.0027800585
0.0020537422
0.0014464092
0.00093891218
0.00051506216
0.00016121254
0.042200284
0.042519246
0.043182568
0.044003711
0.044838618
0.044274933
0.042598736
0.040913654
0.039467914
0.037962872
0.036157999
0.033726159
0.03040713
0.026713657
0.023004465
0.019508519
0.016355519
0.01358005
0.011176384
0.0091216373
0.0073807798
0.0059132207
0.0046796372
0.0036446916
0.002777605
0.0020519365
0.001445141
0.00093809038
0.0005146116
0.00016107144
0.042185985
0.042504451
0.043166425
0.043985842
0.044822829
0.044267241
0.042590766
0.040900932
0.039451012
0.037942816
0.036135291
0.033701381
0.030382312
0.02669078
0.022984132
0.019490997
0.016340697
0.013567678
0.011166184
0.0091133297
0.0073740843
0.005907882
0.0046754332
0.0036414329
0.0027751323
0.0020501163
0.0014438627
0.00093726197
0.00051415741
0.00016092919
0.042171693
0.042489665
0.043150297
0.043967975
0.044807021
0.044259546
0.04258283
0.04088822
0.039434151
0.037922768
0.036112573
0.033676568
0.030357443
0.026667844
0.022963742
0.019473421
0.016325824
0.013555259
0.011155944
0.0091049862
0.0073673584
0.0059025181
0.0046712088
0.0036381581
0.0027726471
0.002048287
0.0014425777
0.00093642926
0.00051370083
0.00016078618
0.042157406
0.042474886
0.04313418
0.043950128
0.044791165
0.044251844
0.042574924
0.040875556
0.039417301
0.037902732
0.036089851
0.033651727
0.030332534
0.026644866
0.02294331
0.019455805
0.016310915
0.013542808
0.011145673
0.0090966161
0.0073606091
0.0058971343
0.0046669679
0.0036348699
0.0027701515
0.0020464497
0.0014412872
0.00093559284
0.00051324219
0.00016064252
0.042143124
0.042460111
0.043118072
0.043932262
0.044775296
0.044244119
0.042567042
0.040862899
0.039400463
0.037882711
0.036067128
0.033626865
0.030307595
0.026621857
0.02292285
0.019438165
0.016295985
0.013530337
0.011135387
0.0090882323
0.0073538485
0.0058917413
0.0046627196
0.0036315759
0.0027676514
0.0020446091
0.0014399942
0.00093475484
0.00051278267
0.00016049858
0.042128845
0.042445337
0.043101972
0.043914414
0.044759365
0.044236393
0.042559201
0.040850286
0.039383665
0.037862707
0.036044408
0.033601985
0.030282632
0.026598824
0.02290237
0.019420508
0.016281039
0.013517853
0.011125088
0.009079837
0.0073470777
0.0058863395
0.004658464
0.0036282761
0.0027651468
0.0020427652
0.0014386989
0.00093391529
0.00051232229
0.00016035437
0.042114567
0.042430566
0.043085877
0.043896582
0.044743431
0.04422865
0.042551374
0.040837688
0.039366898
0.037842731
0.036021694
0.03357709
0.030257649
0.026575773
0.022881876
0.019402841
0.016266086
0.013505363
0.011114784
0.0090714373
0.0073403031
0.0058809346
0.0046542057
0.0036249741
0.0027626405
0.0020409199
0.0014374026
0.00093307514
0.00051186158
0.00016021005
0.042100292
0.042415795
0.043069788
0.043878744
0.04472742
0.044220885
0.042543582
0.040825125
0.039350143
0.037822777
0.035998987
0.033552184
0.030232652
0.026552712
0.022861373
0.019385168
0.016251129
0.01349287
0.011104476
0.0090630335
0.0073335241
0.0058755253
0.0046499436
0.0036216688
0.0027601314
0.0020390725
0.0014361048
0.00093223391
0.00051140026
0.00016006553
0.042086018
0.042401025
0.043053702
0.043860921
0.044711407
0.044213118
0.04253581
0.040812595
0.039333413
0.037802857
0.035976291
0.033527268
0.030207651
0.026529643
0.022840865
0.019367495
0.016236174
0.013480379
0.011094171
0.0090546327
0.0073267479
0.0058701184
0.0046456833
0.003618365
0.0027576234
0.0020372259
0.0014348074
0.00093139298
0.00051093908
0.00015992106
0.042071745
0.042386255
0.043037604
0.043843081
0.044695328
0.044205329
0.042528067
0.040800081
0.039316729
0.037782958
0.035953606
0.033502348
0.030182642
0.026506567
0.022820355
0.019349822
0.016221221
0.013467891
0.011083868
0.0090462327
0.0073199717
0.0058647111
0.0046414225
0.0036150606
0.002755115
0.0020353789
0.0014335098
0.00093055191
0.00051047785
0.00015977656
0.042057471
0.042371484
0.043021505
0.043825245
0.044679234
0.044197523
0.042520357
0.040787619
0.039300064
0.037763082
0.035930934
0.033477425
0.030157625
0.026483484
0.022799846
0.019332152
0.016206274
0.013455408
0.011073571
0.0090378377
0.0073131997
0.0058593072
0.0046371644
0.0036117583
0.0027526081
0.002033533
0.001432213
0.00092971135
0.00051001688
0.00015963215
0.042043198
0.042356713
0.043005411
0.043807425
0.044663088
0.04418971
0.042512663
0.040775167
0.039283415
0.037743228
0.035908275
0.033452501
0.030132602
0.026460399
0.022779337
0.019314488
0.016191333
0.013442931
0.011063277
0.0090294451
0.0073064288
0.0058539034
0.0046329058
0.0036084552
0.0027501003
0.0020316863
0.0014309156
0.00092887029
0.00050955562
0.00015948765
0.042028924
0.042341941
0.04298932
0.043789603
0.044646914
0.044181872
0.042505011
0.040762762
0.039266809
0.037723397
0.035885633
0.033427576
0.030107576
0.026437315
0.022758836
0.019296831
0.016176401
0.013430464
0.011052994
0.0090210619
0.0072996661
0.0058485065
0.0046286528
0.0036051565
0.0027475959
0.0020298421
0.0014296198
0.00092803034
0.00050909495
0.00015934332
0.042014649
0.042327166
0.042973232
0.043771787
0.044630702
0.044174023
0.042497373
0.040750373
0.039250237
0.037703596
0.035863007
0.033402655
0.030082546
0.02641423
0.022738338
0.01927918
0.016161477
0.013418005
0.011042717
0.0090126835
0.0072929069
0.0058431122
0.0046244016
0.0036018592
0.0027450924
0.0020279986
0.0014283246
0.00092719073
0.00050863448
0.00015919906
0.042000373
0.04231239
0.042957148
0.043753972
0.044614447
0.044166162
0.042489769
0.040738026
0.03923368
0.037683821
0.035840398
0.033377743
0.030057516
0.026391146
0.022717844
0.019261538
0.016146563
0.013405555
0.01103245
0.0090043137
0.0072861549
0.0058377237
0.0046201551
0.0035985655
0.0027425918
0.0020261571
0.0014270307
0.00092635201
0.00050817449
0.00015905495
0.041986095
0.042297613
0.042941067
0.043736144
0.044598171
0.044158274
0.042482189
0.040725703
0.039217151
0.037664081
0.035817807
0.033352836
0.030032486
0.026368064
0.022697355
0.019243903
0.016131657
0.013393114
0.011022189
0.0089959486
0.0072794061
0.0058323371
0.0046159096
0.0035952722
0.0027400912
0.0020243156
0.0014257367
0.00092551317
0.00050771443
0.00015891081
0.041971816
0.042282828
0.042924989
0.04371833
0.044581837
0.044150378
0.042474628
0.040713415
0.039200668
0.037644363
0.035795236
0.033327937
0.030007458
0.026344985
0.022676873
0.019226278
0.016116763
0.013380686
0.011011941
0.0089875947
0.0072726669
0.0058269586
0.0046116706
0.003591984
0.0027375945
0.0020224769
0.0014244447
0.00092467559
0.00050725504
0.00015876688
0.041957536
0.04226804
0.042908914
0.043700524
0.044565497
0.044142464
0.042467112
0.040701163
0.039184204
0.037624669
0.035772684
0.033303047
0.029982433
0.026321909
0.022656397
0.019208661
0.016101879
0.013368265
0.011001699
0.0089792466
0.0072659322
0.0058215834
0.0046074342
0.0035886977
0.0027350992
0.0020206392
0.0014231535
0.00092383851
0.00050679594
0.00015862305
0.041943254
0.042253251
0.042892842
0.043682713
0.044549085
0.044134526
0.042459605
0.04068893
0.03916776
0.037604996
0.035750153
0.033278166
0.029957413
0.026298837
0.022635928
0.019191053
0.016087005
0.013355856
0.010991469
0.0089709077
0.0072592054
0.0058162149
0.0046032031
0.0035854157
0.0027326071
0.0020188039
0.0014218639
0.00092300249
0.00050633742
0.00015847939
0.04192897
0.042238459
0.042876772
0.043664919
0.044532671
0.044126577
0.042452136
0.040676747
0.039151359
0.037585347
0.035727642
0.033253296
0.029932405
0.026275769
0.022615465
0.019173453
0.01607214
0.013343455
0.010981244
0.0089625736
0.0072524817
0.005810848
0.0045989727
0.0035821337
0.0027301149
0.0020169683
0.001420574
0.00092216624
0.00050587874
0.00015833568
0.041914684
0.042223664
0.042860705
0.043647104
0.044516191
0.044118607
0.042444684
0.04066458
0.039134988
0.037565729
0.035705153
0.033228439
0.029907405
0.026252712
0.022595011
0.019155864
0.016057288
0.013331068
0.010971033
0.0089542519
0.0072457688
0.0058054904
0.0045947499
0.0035788578
0.0027276272
0.0020151361
0.0014192864
0.00092133148
0.00050542088
0.00015819222
0.041900396
0.042208866
0.042844641
0.043629295
0.044499698
0.044110615
0.042437258
0.040652459
0.039118631
0.037546139
0.035682686
0.033203596
0.029882413
0.026229663
0.022574564
0.019138286
0.016042445
0.01331869
0.01096083
0.0089459361
0.0072390607
0.0058001363
0.0045905298
0.0035755839
0.0027251411
0.0020133049
0.0014179997
0.00092049725
0.00050496332
0.00015804887
0.041886106
0.042194065
0.042828574
0.043611502
0.044483158
0.044102611
0.042429871
0.040640357
0.039102311
0.03752658
0.035660243
0.033178768
0.02985743
0.026206622
0.022554127
0.019120718
0.016027612
0.013306323
0.010950637
0.0089376304
0.0072323613
0.0057947898
0.0045863159
0.0035723149
0.0027226588
0.0020114767
0.0014167149
0.00091966432
0.00050450647
0.00015790573
0.041871814
0.042179262
0.042812496
0.043593701
0.044466586
0.04409458
0.042422493
0.040628298
0.039086033
0.037507043
0.035637822
0.033153958
0.029832456
0.026183589
0.022533697
0.019103158
0.016012789
0.013293965
0.010940451
0.0089293291
0.0072256647
0.0057894447
0.0045821025
0.0035690459
0.0027201762
0.002009648
0.0014154298
0.00091883112
0.00050404945
0.00015776253
0.04185752
0.042164456
0.042796418
0.043575911
0.044449988
0.044086531
0.042415157
0.040616262
0.039069768
0.037487528
0.035615425
0.033129167
0.029807494
0.026160568
0.022513278
0.01908561
0.015997978
0.013281619
0.010930278
0.0089210404
0.0072189794
0.0057841092
0.0045778971
0.0035657833
0.0027176985
0.002007823
0.0014141472
0.00091799951
0.00050359329
0.0001576196
0.04184322
0.042149647
0.042780344
0.043558126
0.044433339
0.044078468
0.042407836
0.040604267
0.039053531
0.037468036
0.035593051
0.033104395
0.029782545
0.026137559
0.022492868
0.019068071
0.015983175
0.013269282
0.010920112
0.008912757
0.0072122982
0.0057787769
0.004573694
0.0035625225
0.002715222
0.0020059989
0.0014128653
0.0009171684
0.00050313742
0.00015747677
0.041828918
0.042134835
0.042764273
0.043540326
0.044416682
0.044070375
0.04240054
0.040592298
0.03903734
0.037448571
0.035570701
0.033079642
0.02975761
0.026114561
0.022472469
0.019050543
0.015968384
0.013256955
0.010909956
0.0089044834
0.0072056256
0.0057734519
0.004569497
0.0035592664
0.0027127494
0.0020041776
0.0014115853
0.00091633853
0.00050268222
0.00015733414
0.041814614
0.04212002
0.042748204
0.04352254
0.044399958
0.044062266
0.042393284
0.040580366
0.039021168
0.037429132
0.035548376
0.033054911
0.02973269
0.026091576
0.022452082
0.019033024
0.015953601
0.013244637
0.010899807
0.008896214
0.0071989555
0.005768128
0.0045653001
0.00355601
0.0027102761
0.0020023556
0.0014103048
0.00091550825
0.00050222679
0.00015719144
0.041800308
0.042105202
0.042732139
0.043504761
0.044383231
0.044054138
0.042386035
0.040568469
0.039005019
0.037409727
0.035526074
0.033030206
0.029707789
0.026068605
0.022431709
0.019015517
0.015938832
0.013232332
0.010889671
0.0088879579
0.0071922974
0.0057628146
0.004561112
0.0035527606
0.0027078082
0.0020005376
0.0014090271
0.00091467973
0.0005017723
0.00015704903
0.041785999
0.042090381
0.042716077
0.043486979
0.044366445
0.044045982
0.04237883
0.040556598
0.038988914
0.037390346
0.035503796
0.033005522
0.02968291
0.026045647
0.022411348
0.01899802
0.015924071
0.013220034
0.010879542
0.0088797067
0.0071856431
0.0057575039
0.004556926
0.0035495128
0.0027053415
0.0019987206
0.00140775
0.00091385169
0.0005013181
0.00015690671
0.041771688
0.042075556
0.042700018
0.043469213
0.044349646
0.044037807
0.042371639
0.040544772
0.038972834
0.037370986
0.03548154
0.03298086
0.029658056
0.026022704
0.022391
0.018980534
0.015909321
0.013207747
0.010869423
0.0088714653
0.0071789976
0.0057522009
0.0045527463
0.0035462701
0.0027028788
0.0019969065
0.001406475
0.000913025
0.00050086462
0.00015676463
0.041757374
0.042060729
0.042683963
0.043451439
0.044332803
0.044029609
0.042364469
0.040532965
0.038956771
0.037351647
0.035459308
0.032956221
0.029633222
0.025999775
0.022370662
0.018963056
0.015894578
0.013195467
0.010859309
0.0088632271
0.0071723537
0.0057468984
0.0045485663
0.0035430267
0.0027004152
0.0019950915
0.0014051993
0.0009121978
0.00050041086
0.00015662244
0.041743058
0.042045897
0.04266791
0.043433662
0.044315928
0.044021385
0.042357344
0.040521206
0.03894075
0.037332333
0.035437099
0.032931604
0.029608408
0.025976862
0.022350337
0.018945591
0.015879847
0.013183199
0.010849208
0.0088550017
0.0071657217
0.0057416063
0.0045443952
0.0035397903
0.0026979571
0.0019932806
0.0014039265
0.00091137244
0.00049995808
0.00015648056
0.041728739
0.042031062
0.04265186
0.0434159
0.044299033
0.044013139
0.042350221
0.040509466
0.03892476
0.037313046
0.035414914
0.032907011
0.029583615
0.025953969
0.022330024
0.018928136
0.015865125
0.013170938
0.010839112
0.0088467804
0.0071590927
0.0057363166
0.0045402257
0.0035365553
0.0026955
0.0019914705
0.0014026542
0.00091054746
0.00049950555
0.00015633877
0.041714417
0.042016223
0.042635812
0.043398135
0.044282083
0.044004868
0.042343141
0.040497771
0.038908784
0.037293788
0.035392752
0.032882441
0.029558843
0.025931092
0.022309723
0.018910692
0.015850412
0.013158687
0.010829027
0.0088385686
0.0071524725
0.0057310345
0.0045360627
0.0035333255
0.0026930471
0.0019896635
0.0014013841
0.0009097239
0.00049905377
0.00015619721
0.041700092
0.042001378
0.042619768
0.043380376
0.044265128
0.043996572
0.042336081
0.040486099
0.038892847
0.037274557
0.035370613
0.032857895
0.029534093
0.025908232
0.022289435
0.018893257
0.015835707
0.013146442
0.010818946
0.0088303593
0.0071458533
0.0057257525
0.0045318991
0.0035300949
0.0026905932
0.0019878556
0.0014001134
0.00090889985
0.00049860172
0.00015605556
0.041685765
0.041986528
0.042603719
0.043362633
0.044248114
0.043988251
0.042329032
0.040474468
0.038876946
0.037255347
0.035348498
0.032833373
0.029509366
0.02588539
0.022269161
0.018875835
0.015821014
0.013134209
0.010808877
0.0088221625
0.0071392458
0.0057204807
0.004527744
0.0035268711
0.0026881445
0.0019860516
0.0013988453
0.00090807752
0.00049815059
0.00015591419
0.041671434
0.041971674
0.042587666
0.043344875
0.044231094
0.043979903
0.042322034
0.040462864
0.038861058
0.037236157
0.035326406
0.032808879
0.029484662
0.025862567
0.0222489
0.018858423
0.015806328
0.013121983
0.010798814
0.0088139696
0.0071326412
0.0057152112
0.0045235909
0.0035236488
0.0026856971
0.0019842486
0.0013975779
0.00090725571
0.00049769977
0.00015577293
0.041657101
0.041956816
0.042571611
0.043327123
0.044214025
0.043971531
0.042315038
0.0404513
0.038845203
0.037216989
0.035304338
0.032784409
0.029459981
0.025839764
0.022228653
0.018841022
0.015791653
0.013109766
0.01078876
0.008805786
0.0071260453
0.0057099494
0.0045194443
0.0035204319
0.0026832539
0.0019824487
0.0013963128
0.00090643535
0.00049724974
0.00015563192
0.041642765
0.041941954
0.042555559
0.043309387
0.044196935
0.043963134
0.042308078
0.040439765
0.038829392
0.03719785
0.035282292
0.032759964
0.029435323
0.025816979
0.02220842
0.018823631
0.015776985
0.013097555
0.01077871
0.0087976048
0.0071194503
0.0057046875
0.0045152969
0.0035172139
0.0026808096
0.0019806478
0.001395047
0.00090561445
0.0004967994
0.0001554908
0.041628426
0.041927088
0.04253951
0.043291641
0.044179819
0.043954707
0.042301148
0.040428267
0.038813592
0.037178738
0.03526027
0.032735544
0.029410696
0.025794215
0.022188203
0.018806254
0.015762331
0.013085357
0.010768674
0.0087894361
0.007112867
0.0056994359
0.0045111583
0.0035140031
0.0026783709
0.0019788511
0.001393784
0.00090479538
0.00049635005
0.00015534999
0.041614083
0.041912218
0.042523465
0.04327391
0.044162657
0.043946256
0.042294223
0.040416801
0.038797823
0.037159654
0.035238271
0.03271115
0.029386098
0.02577147
0.022168
0.018788887
0.015747685
0.013073165
0.010758642
0.0087812711
0.0071062864
0.0056941865
0.0045070213
0.0035107936
0.0026759332
0.0019770552
0.0013925216
0.0009039768
0.000495901
0.00015520928
0.041599738
0.041897343
0.042507424
0.043256196
0.044145486
0.043937778
0.042287347
0.040405372
0.038782098
0.037140589
0.035216294
0.032686783
0.029361524
0.025748744
0.022147812
0.018771533
0.015733049
0.013060982
0.01074862
0.008773115
0.007099714
0.0056889442
0.0045028905
0.0035075891
0.0026734994
0.0019752623
0.0013912614
0.00090315956
0.00049545267
0.00015506879
0.041585389
0.041882465
0.042491387
0.043238461
0.044128266
0.043929268
0.042280483
0.040393976
0.038766387
0.037121544
0.03519434
0.032662441
0.029336974
0.025726037
0.02212764
0.018754188
0.015718421
0.013048805
0.010738601
0.0087649609
0.0070931423
0.0056837018
0.004498759
0.0035043836
0.0026710647
0.0019734684
0.0013900004
0.00090234183
0.00049500406
0.00015492822
0.041571036
0.041867581
0.042475353
0.043220739
0.044111036
0.043920734
0.042273636
0.040382615
0.038750704
0.037102521
0.035172411
0.032638123
0.029312448
0.025703351
0.022107485
0.018736859
0.015703805
0.01303664
0.010728594
0.0087568188
0.0070865817
0.0056784692
0.0044946358
0.003501185
0.0026686353
0.0019716786
0.0013887423
0.00090152591
0.00049455644
0.00015478795
0.04155668
0.041852693
0.042459324
0.043203029
0.044093764
0.043912172
0.042266837
0.04037129
0.038735065
0.037083525
0.035150504
0.03261383
0.029287947
0.025680685
0.022087347
0.018719541
0.015689197
0.01302448
0.010718591
0.00874868
0.0070800237
0.0056732388
0.0044905144
0.0034979877
0.0026662071
0.0019698897
0.0013874848
0.0009007105
0.00049410912
0.00015464778
0.041542321
0.041837801
0.042443297
0.043185314
0.044076471
0.043903577
0.042260038
0.040359999
0.038719442
0.037064556
0.035128618
0.03258956
0.029263471
0.025658042
0.022067225
0.018702235
0.015674599
0.01301233
0.010708598
0.0087405494
0.0070734733
0.0056680151
0.0044863988
0.0034947953
0.0026637826
0.0019681037
0.0013862294
0.00089989638
0.0004936625
0.00015450783
0.041527957
0.041822899
0.042427274
0.043167613
0.044059157
0.043894955
0.042253276
0.040348746
0.038703847
0.037045614
0.035106754
0.032565313
0.029239018
0.025635419
0.022047118
0.018684939
0.015660008
0.013000184
0.010698607
0.0087324206
0.0070669236
0.0056627913
0.0044822826
0.003491602
0.0026613573
0.0019663169
0.0013849734
0.00089908189
0.00049321567
0.00015436782
0.041513589
0.041807991
0.042411255
0.04314993
0.044041794
0.043886305
0.042246544
0.040337525
0.038688295
0.03702669
0.035084912
0.03254109
0.02921459
0.025612818
0.022027028
0.018667656
0.015645429
0.012988051
0.010688628
0.0087243029
0.0070603842
0.0056575767
0.0044781742
0.0034884152
0.002658937
0.0019645338
0.00138372
0.00089826906
0.00049276974
0.00015422808
0.041499218
0.041793077
0.04239524
0.043132227
0.044024426
0.043877621
0.042239814
0.040326345
0.038672759
0.037007785
0.035063091
0.03251689
0.029190185
0.025590237
0.022006953
0.018650385
0.015630858
0.012975922
0.010678653
0.0087161882
0.0070538472
0.0056523639
0.0044740673
0.0034852296
0.0026565177
0.0019627516
0.0013824673
0.00089745671
0.0004923241
0.00015408844
0.041484842
0.041778158
0.042379222
0.043114537
0.044007015
0.04386891
0.042233135
0.040315197
0.038657253
0.036988903
0.035041291
0.032492714
0.029165806
0.025567677
0.021986894
0.018633125
0.015616298
0.012963802
0.010668686
0.0087080812
0.0070473173
0.0056471575
0.0044699659
0.0034820486
0.0026541022
0.0019609722
0.0013812166
0.00089664564
0.00049187916
0.00015394901
0.041470461
0.041763234
0.042363208
0.043096857
0.043989592
0.043860168
0.042226469
0.04030409
0.038641789
0.036970046
0.035019512
0.032468562
0.029141455
0.025545138
0.02196685
0.018615877
0.015601744
0.012951687
0.010658722
0.0086999757
0.0070407875
0.0056419506
0.0044658636
0.0034788664
0.0026516855
0.0019591918
0.0013799651
0.00089583407
0.00049143393
0.00015380949
0.041456076
0.041748305
0.042347184
0.043079175
0.043972138
0.043851394
0.042219814
0.040293017
0.038626344
0.03695122
0.034997756
0.032444436
0.029117135
0.025522622
0.021946824
0.018598643
0.015587204
0.012939585
0.01064877
0.0086918818
0.0070342686
0.0056367531
0.0044617692
0.0034756907
0.0026492738
0.0019574152
0.0013787163
0.0008950242
0.00049098962
0.00015367026
0.041441686
0.041733371
0.042331165
0.043061509
0.043954656
0.043842591
0.042213213
0.040281988
0.03861093
0.036932417
0.03497602
0.032420333
0.029092839
0.025500127
0.021926815
0.018581421
0.015572672
0.012927488
0.010638823
0.0086837911
0.0070277522
0.0056315576
0.0044576765
0.0034725165
0.0026468634
0.0019556395
0.0013774682
0.00089421488
0.00049054564
0.00015353114
0.041427293
0.041718431
0.04231515
0.043043861
0.043937158
0.043833756
0.042206615
0.040270991
0.038595559
0.036913633
0.034954306
0.032396253
0.029068568
0.025477653
0.021906822
0.018564213
0.015558151
0.012915401
0.010628884
0.0086757085
0.0070212433
0.0056263689
0.0044535897
0.0034693471
0.0026444568
0.0019538669
0.0013762223
0.00089340695
0.00049010243
0.00015339226
0.041412895
0.041703486
0.04229914
0.043026197
0.043919618
0.043824889
0.042200042
0.040260039
0.038580205
0.036894868
0.034932613
0.032372195
0.02904432
0.025455199
0.021886845
0.018547015
0.015543637
0.012903319
0.010618948
0.0086676269
0.0070147342
0.0056211791
0.0044495014
0.0034661762
0.0026420488
0.001952093
0.0013749754
0.0008925984
0.00048965886
0.00015325327
0.041398492
0.041688536
0.042283135
0.043008544
0.043902071
0.043815991
0.04219351
0.040249121
0.038564884
0.036876131
0.034910941
0.032348163
0.029020098
0.025432768
0.021866888
0.018529835
0.015529137
0.012891249
0.010609024
0.0086595571
0.0070082358
0.0056159989
0.0044454212
0.0034630119
0.002639646
0.001950323
0.0013737313
0.00089179161
0.00048921625
0.00015311457
0.041384085
0.04167358
0.042267135
0.042990903
0.043884496
0.043807061
0.042186982
0.04023825
0.038549608
0.036857416
0.03488929
0.032324157
0.028995901
0.025410358
0.021846946
0.018512666
0.015514645
0.012879186
0.010599104
0.00865149
0.0070017395
0.0056108201
0.0044413422
0.0034598485
0.002637244
0.0019485537
0.0013724878
0.00089098523
0.00048877391
0.00015297597
0.041369673
0.041658618
0.042251139
0.042973261
0.043866901
0.043798099
0.04218049
0.040227412
0.038534348
0.036838735
0.03486766
0.032300174
0.028971727
0.025387969
0.021827023
0.018495512
0.015500165
0.012867132
0.010589193
0.0086434312
0.0069952506
0.005605648
0.0044372689
0.0034566899
0.0026348458
0.0019467872
0.0013712463
0.0008901802
0.00048833229
0.00015283759
0.041355256
0.04164365
0.042235147
0.042955634
0.043849282
0.043789103
0.042174028
0.040216622
0.038519123
0.036820073
0.03484605
0.032276212
0.028947578
0.025365602
0.021807115
0.018478369
0.015485692
0.012855082
0.010579285
0.008635373
0.006988761
0.0056004743
0.0044331937
0.0034535295
0.0026324459
0.0019450194
0.0013700037
0.00088937447
0.00048789029
0.00015269909
0.041340834
0.041628676
0.042219161
0.042938025
0.043831627
0.043780073
0.042167567
0.040205866
0.038503944
0.036801429
0.034824463
0.032252273
0.028923453
0.025343261
0.021787228
0.018461242
0.015471233
0.012843046
0.010569389
0.0086273267
0.0069822824
0.0055953105
0.0044291269
0.0034503758
0.0026300514
0.0019432556
0.001368764
0.00088857057
0.00048744927
0.0001525609
0.041326407
0.041613696
0.042203179
0.042920409
0.043813964
0.043771012
0.042161155
0.04019516
0.038488782
0.036782808
0.034802896
0.032228357
0.028899353
0.02532094
0.021767358
0.018444127
0.015456783
0.012831016
0.010559496
0.0086192827
0.0069758053
0.0055901476
0.0044250608
0.0034472227
0.0026276574
0.0019414923
0.0013675247
0.00088776699
0.00048700847
0.00015242278
0.041311975
0.04159871
0.042187202
0.042902798
0.043796275
0.043761917
0.04215476
0.040184489
0.038473657
0.036764214
0.03478135
0.032204462
0.02887528
0.025298641
0.021747506
0.018427026
0.015442344
0.012818995
0.010549613
0.008611247
0.0069693359
0.0055849915
0.0044210006
0.0034440746
0.0026252673
0.001939732
0.0013662876
0.00088696481
0.00048656844
0.00015228491
0.041297537
0.041583717
0.042171229
0.0428852
0.043778567
0.043752785
0.042148368
0.040173867
0.038458573
0.036745646
0.034759823
0.032180588
0.028851235
0.025276362
0.021727673
0.018409937
0.015427913
0.012806979
0.010539732
0.0086032118
0.0069628655
0.0055798338
0.0044169384
0.0034409245
0.0026228755
0.0019379702
0.0013650493
0.00088616191
0.000486128
0.0001521469
0.041283093
0.041568716
0.042155259
0.042867599
0.043760843
0.043743621
0.042142032
0.040163281
0.03844351
0.036727105
0.034738317
0.032156736
0.028827216
0.025254108
0.021707858
0.018392863
0.015413495
0.012794977
0.010529863
0.0085951884
0.0069564058
0.0055746855
0.0044128843
0.003437781
0.0026204889
0.0019362123
0.0013638139
0.00088536078
0.00048568852
0.00015200919
0.041268643
0.041553709
0.042139287
0.042850013
0.043743081
0.043734422
0.042135705
0.040152747
0.038428486
0.036708583
0.03471683
0.032132905
0.02880322
0.025231875
0.021688061
0.018375802
0.015399086
0.01278298
0.010519998
0.0085871667
0.006949947
0.0055695377
0.0044088304
0.0034346377
0.0026181025
0.0019344547
0.0013625787
0.00088455988
0.00048524921
0.00015187155
0.041254188
0.041538692
0.04212332
0.042832445
0.04372531
0.043725185
0.042129385
0.04014225
0.0384135
0.03669008
0.034695364
0.032109097
0.028779249
0.025209664
0.021668281
0.018358755
0.015384688