/*--------------------------------*- C++ -*----------------------------------*\
| =========                 |                                                 |
| \\      /  F ield         | OpenFOAM: The Open Source CFD Toolbox           |
|  \\    /   O peration     | Version:  v2012                                 |
|   \\  /    A nd           | Website:  www.openfoam.com                      |
|    \\/     M anipulation  |                                                 |
\*---------------------------------------------------------------------------*/
FoamFile
{
    version     2.0;
    format      ascii;
    class       volScalarField;
    location    "450";
    object      nut;
}
// * * * * * * * * * * * * * * * * * * * * * * * * * * * * * * * * * * * * * //

dimensions      [0 2 -1 0 0 0 0];


internalField   nonuniform List<scalar> 
24000
(
3.6705446e-05
1.0618749e-05
8.0018606e-06
5.5277826e-06
4.6571115e-06
7.3768571e-06
8.6892793e-06
9.1570846e-06
8.7616726e-06
8.0848183e-06
7.2687437e-06
3.7857433e-06
2.3521801e-06
1.5742382e-06
9.7509735e-07
6.1295364e-07
3.7046738e-07
1.9387195e-07
8.0443586e-08
2.8901319e-08
9.2486696e-09
2.6900501e-09
7.1464494e-10
1.7127997e-10
3.5922315e-11
6.2774015e-12
8.9317762e-13
1.7075e-13
1.2352517e-13
1.3187222e-13
3.6683299e-05
1.0471582e-05
7.8380013e-06
5.3742867e-06
4.6237852e-06
7.3377756e-06
8.6926828e-06
9.1605744e-06
8.7660565e-06
8.0930049e-06
7.2680433e-06
3.7895361e-06
2.3533071e-06
1.572715e-06
9.7533635e-07
6.1371255e-07
3.7119503e-07
1.9425691e-07
8.0615052e-08
2.8962842e-08
9.268141e-09
2.6957822e-09
7.1621855e-10
1.7167403e-10
3.6010571e-11
6.2960727e-12
8.9888075e-13
1.7488793e-13
1.2792818e-13
1.3653812e-13
3.6661266e-05
1.0562619e-05
7.994646e-06
5.5156686e-06
4.6439236e-06
7.3122534e-06
8.6486711e-06
9.1218273e-06
8.7297108e-06
8.0558643e-06
7.2608522e-06
3.7889248e-06
2.3526718e-06
1.5713941e-06
9.7489164e-07
6.1361871e-07
3.7117752e-07
1.9450382e-07
8.076669e-08
2.9030771e-08
9.29244e-09
2.7031908e-09
7.1821911e-10
1.7215549e-10
3.6110704e-11
6.3121766e-12
8.9954495e-13
1.7333114e-13
1.2601263e-13
1.3450523e-13
3.6639314e-05
1.0608359e-05
8.0526567e-06
5.5571478e-06
4.6389017e-06
7.2856059e-06
8.6243277e-06
9.0984234e-06
8.7068055e-06
8.0327054e-06
7.2500984e-06
3.7849654e-06
2.350905e-06
1.5698936e-06
9.7411419e-07
6.1316655e-07
3.7085335e-07
1.9418363e-07
8.0590531e-08
2.8954141e-08
9.2652457e-09
2.6948677e-09
7.1595628e-10
1.7160786e-10
3.5995885e-11
6.2928014e-12
8.9761915e-13
1.738245e-13
1.2677559e-13
1.3531608e-13
3.6617424e-05
1.0656604e-05
8.1010719e-06
5.5821268e-06
4.6330581e-06
7.2631958e-06
8.6031543e-06
9.0769323e-06
8.6849347e-06
8.0114092e-06
7.2372756e-06
3.7794299e-06
2.3487534e-06
1.5677964e-06
9.7304325e-07
6.1259087e-07
3.7050577e-07
1.9398515e-07
8.0509286e-08
2.8926407e-08
9.2566059e-09
2.6923903e-09
7.1530341e-10
1.7145231e-10
3.5963356e-11
6.2870291e-12
8.9666582e-13
1.7350201e-13
1.2647614e-13
1.3499728e-13
3.6595588e-05
1.069375e-05
8.1329853e-06
5.5989398e-06
4.6253708e-06
7.2419499e-06
8.5830039e-06
9.0564299e-06
8.6648849e-06
7.9917264e-06
7.223241e-06
3.7728349e-06
2.3462926e-06
1.5656808e-06
9.719092e-07
6.1192741e-07
3.7006353e-07
1.9366014e-07
8.03533e-08
2.8864832e-08
9.2358189e-09
2.6861805e-09
7.1363398e-10
1.7105035e-10
3.5879019e-11
6.2724152e-12
8.9473424e-13
1.7328592e-13
1.2639266e-13
1.349083e-13
3.6573807e-05
1.0723563e-05
8.1568353e-06
5.613461e-06
4.6173927e-06
7.2215015e-06
8.5631663e-06
9.036438e-06
8.6456909e-06
7.9731259e-06
7.2084734e-06
3.7656263e-06
2.3436656e-06
1.5634317e-06
9.706862e-07
6.112024e-07
3.6958341e-07
1.9331712e-07
8.0191292e-08
2.880178e-08
9.2147515e-09
2.6799284e-09
7.1195994e-10
1.7064826e-10
3.5794742e-11
6.2577687e-12
8.9273265e-13
1.7298739e-13
1.2621681e-13
1.3472088e-13
3.655209e-05
1.074786e-05
8.1758803e-06
5.6269893e-06
4.6093402e-06
7.2013508e-06
8.5434686e-06
9.0167687e-06
8.626944e-06
7.9550826e-06
7.1932474e-06
3.7580285e-06
2.3409316e-06
1.5611342e-06
9.6942521e-07
6.1044545e-07
3.6907838e-07
1.9295028e-07
8.0016862e-08
2.8733562e-08
9.1918826e-09
2.6731274e-09
7.1013653e-10
1.7020993e-10
3.5702825e-11
6.2417947e-12
8.9055648e-13
1.726708e-13
1.2603519e-13
1.345273e-13
3.653045e-05
1.0768591e-05
8.1923623e-06
5.640018e-06
4.6013572e-06
7.181392e-06
8.5238672e-06
8.9973186e-06
8.6084835e-06
7.9372885e-06
7.1777299e-06
3.750188e-06
2.3381329e-06
1.5588022e-06
9.6814026e-07
6.0967015e-07
3.6856046e-07
1.925731e-07
7.9837446e-08
2.86634e-08
9.1683653e-09
2.6661345e-09
7.0826186e-10
1.6975932e-10
3.5608332e-11
6.2253666e-12
8.8831058e-13
1.7233552e-13
1.2583749e-13
1.3431655e-13
3.6508906e-05
1.0787098e-05
8.2074853e-06
5.6528324e-06
4.5934865e-06
7.1615586e-06
8.5043293e-06
8.9780085e-06
8.5902033e-06
7.9197047e-06
7.1620314e-06
3.7421906e-06
2.3352923e-06
1.5564533e-06
9.6684383e-07
6.0888559e-07
3.6803572e-07
1.9218947e-07
7.9654752e-08
2.8591906e-08
9.1443927e-09
2.6590046e-09
7.0635031e-10
1.6929982e-10
3.5511971e-11
6.2086112e-12
8.8601737e-13
1.7199044e-13
1.2563233e-13
1.3409779e-13
3.648748e-05
1.0804288e-05
8.2219205e-06
5.6655821e-06
4.5857467e-06
7.1418222e-06
8.4848378e-06
8.9587919e-06
8.5720444e-06
7.9023729e-06
7.1462127e-06
3.7340892e-06
2.3324247e-06
1.5540956e-06
9.6554268e-07
6.0809739e-07
3.6750849e-07
1.9180313e-07
7.9470695e-08
2.851987e-08
9.1202381e-09
2.6518211e-09
7.0442452e-10
1.6883693e-10
3.5414907e-11
6.191732e-12
8.8370444e-13
1.716393e-13
1.2542166e-13
1.3387314e-13
3.6466197e-05
1.0820733e-05
8.2360309e-06
5.6783411e-06
4.5781404e-06
7.1221596e-06
8.4653834e-06
8.9396415e-06
8.5539689e-06
7.8851574e-06
7.1303096e-06
3.7259163e-06
2.3295384e-06
1.5517345e-06
9.6424113e-07
6.07309e-07
3.6698122e-07
1.9141599e-07
7.9286194e-08
2.8447651e-08
9.0960216e-09
2.6446195e-09
7.0249401e-10
1.6837294e-10
3.5317613e-11
6.1748115e-12
8.8138364e-13
1.7128457e-13
1.2520737e-13
1.336446e-13
3.6445081e-05
1.0836783e-05
8.2500157e-06
5.691146e-06
4.5706666e-06
7.1025526e-06
8.4459592e-06
8.9205396e-06
8.535952e-06
7.8680015e-06
7.1143438e-06
3.7176924e-06
2.3266388e-06
1.5493733e-06
9.62942e-07
6.0652275e-07
3.6645568e-07
1.9102949e-07
7.9101982e-08
2.837555e-08
9.0718476e-09
2.6374315e-09
7.0056743e-10
1.6790996e-10
3.5220538e-11
6.1579284e-12
8.7906614e-13
1.7092824e-13
1.2499085e-13
1.3341365e-13
3.6424163e-05
1.0852643e-05
8.2639743e-06
5.7040072e-06
4.5633229e-06
7.0829908e-06
8.4265606e-06
8.9014764e-06
8.5179796e-06
7.8508796e-06
7.0983266e-06
3.7094298e-06
2.3237288e-06
1.5470137e-06
9.6164683e-07
6.0573981e-07
3.6593266e-07
1.9064427e-07
7.891835e-08
2.8303673e-08
9.0477502e-09
2.6302668e-09
6.9864725e-10
1.6744854e-10
3.5123796e-11
6.1411023e-12
8.7675485e-13
1.705711e-13
1.2477278e-13
1.3318103e-13
3.6403471e-05
1.0868433e-05
8.277957e-06
5.7169321e-06
4.5561062e-06
7.0634649e-06
8.407185e-06
8.882445e-06
8.5000418e-06
7.8337771e-06
7.0822604e-06
3.7011359e-06
2.32081e-06
1.5446568e-06
9.6035661e-07
6.0496119e-07
3.6541299e-07
1.9026103e-07
7.8735679e-08
2.8232184e-08
9.023787e-09
2.6231434e-09
6.9673844e-10
1.6698992e-10
3.502765e-11
6.1243796e-12
8.7445624e-13
1.7021416e-13
1.2455376e-13
1.3294737e-13
3.6383036e-05
1.0884226e-05
8.2919892e-06
5.7299232e-06
4.5490148e-06
7.0439689e-06
8.3878299e-06
8.8634398e-06
8.4821314e-06
7.8166844e-06
7.0661352e-06
3.6928141e-06
2.3178831e-06
1.5423027e-06
9.590718e-07
6.0418727e-07
3.6489693e-07
1.8988003e-07
7.8554077e-08
2.8161121e-08
8.9999702e-09
2.6160646e-09
6.9484183e-10
1.6653427e-10
3.4932133e-11
6.107766e-12
8.7217109e-13
1.698576e-13
1.2433397e-13
1.3271287e-13
3.636289e-05
1.0900066e-05
8.3060783e-06
5.7429764e-06
4.542044e-06
7.0244965e-06
8.3684953e-06
8.8444599e-06
8.464245e-06
7.799593e-06
7.0499195e-06
3.684464e-06
2.3149481e-06
1.5399518e-06
9.5779278e-07
6.0341853e-07
3.6438491e-07
1.8950159e-07
7.8373731e-08
2.8090568e-08
8.9763304e-09
2.60904e-09
6.9296015e-10
1.660823e-10
3.4837398e-11
6.0912884e-12
8.6990333e-13
1.695022e-13
1.2411397e-13
1.3247814e-13
3.6343069e-05
1.0915976e-05
8.3202317e-06
5.756093e-06
4.5351921e-06
7.0050423e-06
8.3491785e-06
8.8255031e-06
8.4463797e-06
7.7824951e-06
7.0335396e-06
3.6760815e-06
2.3120047e-06
1.5376037e-06
9.5651946e-07
6.0265486e-07
3.6387682e-07
1.8912566e-07
7.8194596e-08
2.8020496e-08
8.9528553e-09
2.6020654e-09
6.9109212e-10
1.6563364e-10
3.4743366e-11
6.074933e-12
8.6765119e-13
1.6914787e-13
1.238938e-13
1.322432e-13
3.6323606e-05
1.0931966e-05
8.3344479e-06
5.7692734e-06
4.5284582e-06
6.9856044e-06
8.3298784e-06
8.8065672e-06
8.4285334e-06
7.7653866e-06
7.0170247e-06
3.667664e-06
2.3090521e-06
1.5352581e-06
9.5525176e-07
6.0189645e-07
3.6337292e-07
1.8875252e-07
7.8016842e-08
2.7950987e-08
8.9295757e-09
2.5951508e-09
6.8924059e-10
1.6518904e-10
3.4650197e-11
6.0587282e-12
8.6541852e-13
1.6879507e-13
1.2367369e-13
1.3200832e-13
3.6304538e-05
1.0948035e-05
8.3487207e-06
5.7825167e-06
4.5218401e-06
6.9661803e-06
8.3105958e-06
8.7876526e-06
8.4107047e-06
7.7482637e-06
7.0003829e-06
3.6592079e-06
2.3060893e-06
1.5329143e-06
9.5398932e-07
6.0114308e-07
3.6287306e-07
1.8838211e-07
7.7840427e-08
2.7882018e-08
8.9064829e-09
2.5882932e-09
6.874047e-10
1.6474827e-10
3.4557839e-11
6.0426649e-12
8.6320404e-13
1.6844362e-13
1.2345352e-13
1.3177336e-13
3.6285903e-05
1.096417e-05
8.3630492e-06
5.795825e-06
4.5153384e-06
6.946769e-06
8.2913295e-06
8.7687574e-06
8.3928921e-06
7.7311231e-06
6.9836148e-06
3.6507099e-06
2.3031152e-06
1.5305719e-06
9.5273201e-07
6.003948e-07
3.6237737e-07
1.8801453e-07
7.766544e-08
2.7813636e-08
8.8835955e-09
2.5814991e-09
6.8558633e-10
1.6431181e-10
3.4466404e-11
6.026763e-12
8.6101066e-13
1.6809403e-13
1.2323365e-13
1.3153871e-13
3.6267741e-05
1.0980362e-05
8.3774276e-06
5.8091981e-06
4.5089522e-06
6.9273691e-06
8.2720803e-06
8.7498824e-06
8.3750955e-06
7.7139627e-06
6.9667371e-06
3.6421677e-06
2.3001285e-06
1.5282302e-06
9.5147924e-07
5.9965113e-07
3.6188549e-07
1.8764955e-07
7.7491738e-08
2.7745775e-08
8.8608882e-09
2.57476e-09
6.8378307e-10
1.6387906e-10
3.4375757e-11
6.0109992e-12
8.5883527e-13
1.67746e-13
1.2301399e-13
1.3130426e-13
3.6250092e-05
1.0996609e-05
8.3918557e-06
5.8226364e-06
4.502682e-06
6.9079788e-06
8.2528469e-06
8.731028e-06
8.357315e-06
7.6967812e-06
6.949748e-06
3.6335788e-06
2.2971281e-06
1.5258884e-06
9.5023061e-07
5.9891199e-07
3.6139751e-07
1.8728733e-07
7.7319444e-08
2.7678497e-08
8.8383864e-09
2.5680845e-09
6.8199748e-10
1.6345067e-10
3.4286046e-11
5.9953997e-12
8.5668146e-13
1.6739993e-13
1.2279468e-13
1.3107019e-13
3.6232999e-05
1.1012915e-05
8.4063305e-06
5.8361397e-06
4.4965282e-06
6.8885987e-06
8.2336282e-06
8.712193e-06
8.3395501e-06
7.6795778e-06
6.9326623e-06
3.624942e-06
2.2941128e-06
1.5235455e-06
9.4898547e-07
5.9817693e-07
3.6091309e-07
1.8692766e-07
7.7148449e-08
2.7611755e-08
8.8160724e-09
2.5614671e-09
6.8022793e-10
1.6302624e-10
3.4197182e-11
5.9799487e-12
8.5454698e-13
1.6705542e-13
1.2257547e-13
1.308362e-13
3.6216504e-05
1.1029278e-05
8.4208459e-06
5.8497061e-06
4.4904892e-06
6.869228e-06
8.2144258e-06
8.6933778e-06
8.3218005e-06
7.6623514e-06
6.915481e-06
3.616256e-06
2.2910813e-06
1.521201e-06
9.4774347e-07
5.974458e-07
3.6043224e-07
1.865706e-07
7.6978806e-08
2.7545582e-08
8.7939605e-09
2.5549128e-09
6.7847602e-10
1.626062e-10
3.410926e-11
5.9646643e-12
8.5243454e-13
1.6671304e-13
1.2235677e-13
1.3060274e-13
3.6200654e-05
1.1045697e-05
8.4354022e-06
5.8633363e-06
4.484567e-06
6.8498671e-06
8.1952375e-06
8.6745817e-06
8.3040654e-06
7.6451017e-06
6.8982153e-06
3.6075201e-06
2.2880325e-06
1.5188541e-06
9.4650381e-07
5.9671793e-07
3.5995446e-07
1.8621578e-07
7.6810326e-08
2.7479891e-08
8.7720187e-09
2.5484112e-09
6.7673877e-10
1.6218979e-10
3.4022122e-11
5.9495181e-12
8.5034036e-13
1.6637234e-13
1.221384e-13
1.3036963e-13
3.6185495e-05
1.106217e-05
8.4499989e-06
5.8770305e-06
4.4787618e-06
6.830517e-06
8.1760629e-06
8.6558046e-06
8.2863456e-06
7.6278288e-06
6.8808676e-06
3.5987334e-06
2.2849654e-06
1.5165037e-06
9.4526595e-07
5.9599312e-07
3.5947973e-07
1.8586334e-07
7.664311e-08
2.7414739e-08
8.7502704e-09
2.5419705e-09
6.7501864e-10
1.6177766e-10
3.3935908e-11
5.934536e-12
8.4826794e-13
1.660337e-13
1.2192048e-13
1.3013699e-13
3.6171074e-05
1.1078695e-05
8.4646357e-06
5.8907878e-06
4.4730732e-06
6.8111779e-06
8.1569036e-06
8.6370478e-06
8.2686409e-06
7.6105331e-06
6.8634445e-06
3.5898956e-06
2.281879e-06
1.514149e-06
9.4402907e-07
5.9527074e-07
3.5900762e-07
1.85513e-07
7.6477019e-08
2.7350066e-08
8.7286937e-09
2.5355838e-09
6.7331365e-10
1.6136931e-10
3.3850514e-11
5.9196992e-12
8.4621468e-13
1.6569671e-13
1.2170276e-13
1.2990454e-13
3.6157442e-05
1.1095274e-05
8.479316e-06
5.9046091e-06
4.4675032e-06
6.7918513e-06
8.1377579e-06
8.6183091e-06
8.2509507e-06
7.5932148e-06
6.8459495e-06
3.581006e-06
2.2787723e-06
1.5117895e-06
9.4279275e-07
5.9455056e-07
3.5853806e-07
1.8516475e-07
7.6312086e-08
2.7285899e-08
8.7073011e-09
2.5292556e-09
6.7162527e-10
1.6096514e-10
3.3766031e-11
5.905025e-12
8.4418317e-13
1.6536185e-13
1.2148557e-13
1.2967266e-13
3.6144648e-05
1.1111911e-05
8.4940396e-06
5.9184942e-06
4.4620506e-06
6.7725367e-06
8.118627e-06
8.5995895e-06
8.2332756e-06
7.5758749e-06
6.8283873e-06
3.5720642e-06
2.2756444e-06
1.5094242e-06
9.4155608e-07
5.9383179e-07
3.5807043e-07
1.8481817e-07
7.6148084e-08
2.7222134e-08
8.686055e-09
2.522974e-09
6.6995007e-10
1.605643e-10
3.3682274e-11
5.8904808e-12
8.4216908e-13
1.6502867e-13
1.2126876e-13
1.2944117e-13
3.6132745e-05
1.1128611e-05
8.5088046e-06
5.9324435e-06
4.4567169e-06
6.7532333e-06
8.09951e-06
8.5808894e-06
8.2156162e-06
7.558515e-06
6.8107618e-06
3.5630699e-06
2.2724946e-06
1.5070522e-06
9.4031848e-07
5.9311416e-07
3.5760468e-07
1.8447336e-07
7.59851e-08
2.7158826e-08
8.6649776e-09
2.5167466e-09
6.6829041e-10
1.6016741e-10
3.3599382e-11
5.8760919e-12
8.4017585e-13
1.6469753e-13
1.2105244e-13
1.292102e-13
3.6121786e-05
1.1145378e-05
8.5236115e-06
5.9464575e-06
4.4515025e-06
6.7339419e-06
8.0804061e-06
8.5622075e-06
8.1979719e-06
7.5411367e-06
6.7930766e-06
3.5540227e-06
2.2693221e-06
1.5046728e-06
9.390791e-07
5.9239696e-07
3.5714027e-07
1.8412997e-07
7.5822961e-08
2.7095897e-08
8.6440416e-09
2.5105648e-09
6.6664382e-10
1.5977384e-10
3.3517222e-11
5.8618349e-12
8.3820024e-13
1.643679e-13
1.2083629e-13
1.2897938e-13
3.6111827e-05
1.1162212e-05
8.5384586e-06
5.9605345e-06
4.4464062e-06
6.714662e-06
8.0613177e-06
8.5435451e-06
8.1803423e-06
7.5237407e-06
6.7753356e-06
3.544922e-06
2.2661265e-06
1.5022855e-06
9.3783753e-07
5.9167995e-07
3.5667712e-07
1.8378796e-07
7.5661685e-08
2.703337e-08
8.6232575e-09
2.5044328e-09
6.6501167e-10
1.5938398e-10
3.3435882e-11
5.8477261e-12
8.3624476e-13
1.6404035e-13
1.2062073e-13
1.2874919e-13
3.6102923e-05
1.1179105e-05
8.5533465e-06
5.9746773e-06
4.4414312e-06
6.6953931e-06
8.0422413e-06
8.5249014e-06
8.162727e-06
7.5063285e-06
6.7575419e-06
3.5357668e-06
2.2629071e-06
1.4998896e-06
9.3659284e-07
5.9096226e-07
3.5621453e-07
1.8344687e-07
7.5501012e-08
2.6971127e-08
8.6025819e-09
2.4983364e-09
6.6338991e-10
1.589968e-10
3.3355141e-11
5.8337269e-12
8.3430425e-13
1.637143e-13
1.2040555e-13
1.285194e-13
3.6095131e-05
1.1196046e-05
8.5682743e-06
5.9888876e-06
4.4365765e-06
6.6761366e-06
8.0231788e-06
8.5062761e-06
8.1451268e-06
7.488903e-06
6.7396986e-06
3.5265562e-06
2.2596638e-06
1.4974842e-06
9.3534449e-07
5.9024364e-07
3.5575247e-07
1.831068e-07
7.5341047e-08
2.6909227e-08
8.5820399e-09
2.4922845e-09
6.6178118e-10
1.58613e-10
3.3275154e-11
5.8198651e-12
8.3238253e-13
1.6339019e-13
1.2019091e-13
1.2829018e-13
3.6088511e-05
1.1213029e-05
8.5832417e-06
6.0031677e-06
4.4318438e-06
6.6568916e-06
8.0041309e-06
8.4876699e-06
8.1275419e-06
7.4714664e-06
6.7218088e-06
3.5172884e-06
2.2563962e-06
1.4950687e-06
9.3409162e-07
5.8952334e-07
3.5529036e-07
1.827674e-07
7.5181601e-08
2.6847589e-08
8.5616011e-09
2.4862672e-09
6.6018268e-10
1.5823187e-10
3.3195768e-11
5.8061135e-12
8.3047579e-13
1.630674e-13
1.1997643e-13
1.2806112e-13
3.6083121e-05
1.1230058e-05
8.5982495e-06
6.017519e-06
4.427235e-06
6.6376587e-06
7.9850959e-06
8.469083e-06
8.1099716e-06
7.4540202e-06
6.7038751e-06
3.5079614e-06
2.2531045e-06
1.4926427e-06
9.328339e-07
5.8880117e-07
3.5482814e-07
1.8242863e-07
7.50227e-08
2.6786238e-08
8.5412781e-09
2.4802893e-09
6.5859597e-10
1.5785383e-10
3.311708e-11
5.7924906e-12
8.2858685e-13
1.6274653e-13
1.1976256e-13
1.278327e-13
3.6079022e-05
1.1247139e-05
8.6132953e-06
6.0319397e-06
4.4227491e-06
6.6184391e-06
7.9660761e-06
8.4505151e-06
8.0924159e-06
7.4365671e-06
6.6858999e-06
3.4985719e-06
2.2497886e-06
1.4902056e-06
9.3157041e-07
5.8807621e-07
3.5436506e-07
1.8208999e-07
7.4864057e-08
2.6725042e-08
8.5210215e-09
2.4743349e-09
6.5701641e-10
1.5747772e-10
3.3038836e-11
5.7789511e-12
8.2670964e-13
1.6242693e-13
1.1954907e-13
1.2760468e-13
3.6076274e-05
1.1264275e-05
8.6283808e-06
6.046431e-06
4.4183894e-06
6.5992321e-06
7.9470691e-06
8.4319657e-06
8.0748744e-06
7.419109e-06
6.667886e-06
3.4891169e-06
2.2464493e-06
1.4877567e-06
9.3030068e-07
5.8734826e-07
3.5390109e-07
1.8175159e-07
7.4705784e-08
2.6664066e-08
8.5008585e-09
2.4684132e-09
6.5544684e-10
1.5710427e-10
3.29612e-11
5.7655249e-12
8.2484824e-13
1.6210902e-13
1.193361e-13
1.2737721e-13
3.6074941e-05
1.1281468e-05
8.6435082e-06
6.0609923e-06
4.4141541e-06
6.5800384e-06
7.9280766e-06
8.4134354e-06
8.0573467e-06
7.401646e-06
6.6498432e-06
3.479606e-06
2.2430876e-06
1.4852955e-06
9.2902392e-07
5.8661657e-07
3.5343564e-07
1.8141305e-07
7.4547672e-08
2.6603216e-08
8.4807544e-09
2.4625131e-09
6.5388402e-10
1.5673266e-10
3.2883994e-11
5.7521799e-12
8.2299815e-13
1.6179212e-13
1.1912323e-13
1.2714984e-13
3.6075085e-05
1.1298715e-05
8.6586779e-06
6.0756251e-06
4.4100451e-06
6.5608585e-06
7.9090987e-06
8.3949234e-06
8.0398311e-06
7.3841672e-06
6.631793e-06
3.4700754e-06
2.2397043e-06
1.4828217e-06
9.2773993e-07
5.8588104e-07
3.5296871e-07
1.8107437e-07
7.4389762e-08
2.6542526e-08
8.4607243e-09
2.4566402e-09
6.5232972e-10
1.5636337e-10
3.2807326e-11
5.7389364e-12
8.211625e-13
1.6147691e-13
1.1891101e-13
1.2692316e-13
3.607677e-05
1.1316014e-05
8.6738887e-06
6.0903317e-06
4.406065e-06
6.5416923e-06
7.8901339e-06
8.3764304e-06
8.0223282e-06
7.3666737e-06
6.613738e-06
3.4605266e-06
2.2362995e-06
1.4803347e-06
9.264478e-07
5.8514075e-07
3.5249951e-07
1.80735e-07
7.4231741e-08
2.6481849e-08
8.4407132e-09
2.4507764e-09
6.5077871e-10
1.5599507e-10
3.2730905e-11
5.7257427e-12
8.193343e-13
1.6116262e-13
1.1869914e-13
1.2669685e-13
3.6080059e-05
1.1333363e-05
8.6891396e-06
6.105112e-06
4.4022131e-06
6.5225409e-06
7.8711848e-06
8.3579573e-06
8.0048392e-06
7.3491676e-06
6.5956811e-06
3.4509616e-06
2.2328733e-06
1.477834e-06
9.2514721e-07
5.843956e-07
3.5202811e-07
1.8039511e-07
7.4073752e-08
2.6421264e-08
8.420753e-09
2.4449327e-09
6.4923427e-10
1.5562861e-10
3.2654921e-11
5.7126328e-12
8.1751818e-13
1.6084978e-13
1.1848782e-13
1.2647113e-13
3.6085018e-05
1.1350763e-05
8.7044296e-06
6.1199669e-06
4.3984926e-06
6.5034056e-06
7.8522498e-06
8.3395025e-06
7.9873633e-06
7.3316503e-06
6.577625e-06
3.4413821e-06
2.2294259e-06
1.475319e-06
9.2383745e-07
5.836449e-07
3.5155393e-07
1.8005434e-07
7.3915586e-08
2.6360675e-08
8.400808e-09
2.4390973e-09
6.4769296e-10
1.552631e-10
3.2579179e-11
5.6995717e-12
8.1570922e-13
1.605376e-13
1.1827657e-13
1.2624548e-13
3.6091711e-05
1.1368218e-05
8.7197548e-06
6.1348954e-06
4.3949028e-06
6.4842862e-06
7.8333298e-06
8.3210675e-06
7.9699008e-06
7.3141224e-06
6.559572e-06
3.4317899e-06
2.2259574e-06
1.4727899e-06
9.2251845e-07
5.8288862e-07
3.5107702e-07
1.7971271e-07
7.3757299e-08
2.6300123e-08
8.3808957e-09
2.4332767e-09
6.4615679e-10
1.5489909e-10
3.2503802e-11
5.6865819e-12
8.1391083e-13
1.6022683e-13
1.1806598e-13
1.2602053e-13
3.6100203e-05
1.1385734e-05
8.7351148e-06
6.1498966e-06
4.3914446e-06
6.465183e-06
7.8144257e-06
8.3026525e-06
7.9524516e-06
7.2965844e-06
6.5415241e-06
3.4221864e-06
2.2224679e-06
1.4702463e-06
9.2118946e-07
5.8212591e-07
3.5059663e-07
1.7936969e-07
7.3598583e-08
2.623946e-08
8.3609605e-09
2.4274525e-09
6.446204e-10
1.545352e-10
3.2428487e-11
5.6736097e-12
8.1211572e-13
1.5991665e-13
1.1785572e-13
1.2579593e-13
3.6110559e-05
1.1403314e-05
8.7505104e-06
6.1649707e-06
4.3881198e-06
6.4460978e-06
7.7955365e-06
8.2842564e-06
7.9350155e-06
7.2790383e-06
6.5234836e-06
3.4125733e-06
2.2189578e-06
1.4676878e-06
9.1985029e-07
5.8135678e-07
3.5011287e-07
1.7902547e-07
7.343959e-08
2.617877e-08
8.3410356e-09
2.421636e-09
6.4308713e-10
1.541723e-10
3.2353427e-11
5.6606893e-12
8.1032857e-13
1.596076e-13
1.1764601e-13
1.2557192e-13
3.6122844e-05
1.1420951e-05
8.7659442e-06
6.1801193e-06
4.3849284e-06
6.4270302e-06
7.7766634e-06
8.2658802e-06
7.9175933e-06
7.2614858e-06
6.5054522e-06
3.4029522e-06
2.2154275e-06
1.4651141e-06
9.1850038e-07
5.805806e-07
3.4962521e-07
1.7867971e-07
7.3280117e-08
2.6117959e-08
8.3210856e-09
2.4158154e-09
6.4155357e-10
1.5380951e-10
3.2278426e-11
5.6477855e-12
8.0854439e-13
1.592989e-13
1.1743639e-13
1.25348e-13
3.6137123e-05
1.1438636e-05
8.7814182e-06
6.1953469e-06
4.3818731e-06
6.4079813e-06
7.7578055e-06
8.2475236e-06
7.9001847e-06
7.2439264e-06
6.4874319e-06
3.3933247e-06
2.2118772e-06
1.4625256e-06
9.1713988e-07
5.7979747e-07
3.4913375e-07
1.7833245e-07
7.3120223e-08
2.6057065e-08
8.3011275e-09
2.4099969e-09
6.4002162e-10
1.5344733e-10
3.2203598e-11
5.6349194e-12
8.0676635e-13
1.5899123e-13
1.1722737e-13
1.2512474e-13
3.615346e-05
1.1456355e-05
8.7969262e-06
6.2106531e-06
4.3789545e-06
6.3889524e-06
7.7389645e-06
8.2291872e-06
7.8827898e-06
7.2263612e-06
6.4694242e-06
3.3836918e-06
2.2083073e-06
1.459922e-06
9.1576818e-07
5.7900666e-07
3.4863779e-07
1.7798319e-07
7.2959604e-08
2.5995944e-08
8.2811053e-09
2.404162e-09
6.3848584e-10
1.5308437e-10
3.2128637e-11
5.6220357e-12
8.0498701e-13
1.5868382e-13
1.1701872e-13
1.2490187e-13
3.6171918e-05
1.1474103e-05
8.8124653e-06
6.2260376e-06
4.3761733e-06
6.3699437e-06
7.7201404e-06
8.2108716e-06
7.8654102e-06
7.2087933e-06
6.4514306e-06
3.3740553e-06
2.2047183e-06
1.4573034e-06
9.1438531e-07
5.7820831e-07
3.4813758e-07
1.7763218e-07
7.2798447e-08
2.593469e-08
8.2610567e-09
2.3983232e-09
6.3694992e-10
1.5272157e-10
3.205375e-11
5.6091717e-12
8.0321141e-13
1.5837721e-13
1.1681063e-13
1.246796e-13
3.6192561e-05
1.1491884e-05
8.8280369e-06
6.2415011e-06
4.3735307e-06
6.3509565e-06
7.7013335e-06
8.1925767e-06
7.8480452e-06
7.1912232e-06
6.4334526e-06
3.3644165e-06
2.2011108e-06
1.4546696e-06
9.1299093e-07
5.7740195e-07
3.4763265e-07
1.7727912e-07
7.2636566e-08
2.5873215e-08
8.2409476e-09
2.3924692e-09
6.354105e-10
1.5235807e-10
3.1978742e-11
5.5962918e-12
8.0143444e-13
1.5807059e-13
1.166026e-13
1.2445738e-13
3.6215451e-05
1.1509698e-05
8.8436376e-06
6.2570422e-06
4.371028e-06
6.3319922e-06
7.682544e-06
8.1743022e-06
7.8306945e-06
7.1736509e-06
6.4154917e-06
3.3547767e-06
2.1974853e-06
1.4520213e-06
9.1158536e-07
5.7658785e-07
3.4712321e-07
1.7692413e-07
7.247405e-08
2.5811569e-08
8.2207986e-09
2.3866071e-09
6.3386975e-10
1.5199442e-10
3.190374e-11
5.5834193e-12
7.9965961e-13
1.5776471e-13
1.163952e-13
1.2423586e-13
3.6240648e-05
1.1527545e-05
8.8592676e-06
6.2726615e-06
4.3686653e-06
6.3130501e-06
7.6637717e-06
8.1560483e-06
7.8133588e-06
7.1560782e-06
6.3975489e-06
3.3451369e-06
2.1938422e-06
1.4493584e-06
9.101682e-07
5.7576539e-07
3.4660868e-07
1.7656675e-07
7.2310624e-08
2.5749619e-08
8.2005579e-09
2.3807196e-09
6.3232256e-10
1.5162931e-10
3.1828452e-11
5.5705017e-12
7.9787976e-13
1.5745878e-13
1.1618815e-13
1.2401471e-13
3.6268213e-05
1.1545422e-05
8.874925e-06
6.2883591e-06
4.3664432e-06
6.2941313e-06
7.6450181e-06
8.1378161e-06
7.7960392e-06
7.1385072e-06
6.3796255e-06
3.3354986e-06
2.1901823e-06
1.4466811e-06
9.0873966e-07
5.7493486e-07
3.4608934e-07
1.7620728e-07
7.214648e-08
2.5687459e-08
8.1802625e-09
2.374819e-09
6.3077252e-10
1.5126366e-10
3.1753081e-11
5.5575747e-12
7.9609971e-13
1.5715331e-13
1.1598163e-13
1.2379413e-13
3.6298204e-05
1.1563325e-05
8.8906018e-06
6.3041348e-06
4.3643641e-06
6.2752384e-06
7.6262828e-06
8.1196055e-06
7.7787359e-06
7.1209385e-06
6.3617225e-06
3.3258628e-06
2.1865061e-06
1.4439896e-06
9.0729959e-07
5.7409593e-07
3.4556484e-07
1.7584546e-07
7.1981452e-08
2.562501e-08
8.1598811e-09
2.3688947e-09
6.292165e-10
1.5089665e-10
3.1677441e-11
5.5446047e-12
7.9431464e-13
1.5684754e-13
1.1577516e-13
1.2357362e-13
3.6330677e-05
1.1581249e-05
8.906296e-06
6.3199906e-06
4.3624266e-06
6.2563699e-06
7.6075659e-06
8.1014162e-06
7.7614489e-06
7.1033729e-06
6.3438409e-06
3.3162306e-06
2.1828142e-06
1.4412846e-06
9.0584849e-07
5.7324898e-07
3.4503546e-07
1.7548144e-07
7.1815641e-08
2.5562325e-08
8.139435e-09
2.3629542e-09
6.2765667e-10
1.5052885e-10
3.1601659e-11
5.5316146e-12
7.9252796e-13
1.5654221e-13
1.1556933e-13
1.233538e-13
3.6365688e-05
1.1599189e-05
8.9220047e-06
6.3359224e-06
4.3606304e-06
6.2375278e-06
7.5888679e-06
8.0832481e-06
7.744178e-06
7.0858115e-06
6.3259815e-06
3.3066029e-06
2.1791073e-06
1.4385663e-06
9.0438613e-07
5.7239355e-07
3.4450073e-07
1.7511482e-07
7.1648802e-08
2.5499281e-08
8.1188764e-09
2.3569811e-09
6.2608828e-10
1.5015901e-10
3.1525461e-11
5.518555e-12
7.9073293e-13
1.5623655e-13
1.1536384e-13
1.2313435e-13
3.6403289e-05
1.1617145e-05
8.9377235e-06
6.351926e-06
4.3589783e-06
6.2187146e-06
7.5701897e-06
8.0651023e-06
7.7269241e-06
7.0682559e-06
6.3081452e-06
3.2969807e-06
2.1753861e-06
1.4358351e-06
9.0291289e-07
5.7153007e-07
3.4396103e-07
1.7474596e-07
7.1481146e-08
2.5435981e-08
8.0982445e-09
2.3509885e-09
6.2451505e-10
1.497881e-10
3.1449053e-11
5.5054623e-12
7.8893439e-13
1.5593106e-13
1.1515885e-13
1.2291544e-13
3.6443531e-05
1.1635118e-05
8.9534574e-06
6.3679923e-06
4.3574703e-06
6.1999282e-06
7.5515311e-06
8.0469788e-06
7.7096879e-06
7.0507077e-06
6.290333e-06
3.2873648e-06
2.1716513e-06
1.4330912e-06
9.0142878e-07
5.7065834e-07
3.4341611e-07
1.7437465e-07
7.1312543e-08
2.5372359e-08
8.0775125e-09
2.344967e-09
6.2293421e-10
1.4941537e-10
3.1372271e-11
5.4923063e-12
7.8712804e-13
1.5562509e-13
1.1495396e-13
1.2269665e-13
3.6486464e-05
1.1653108e-05
8.9692043e-06
6.3841323e-06
4.3561072e-06
6.1811703e-06
7.5328918e-06
8.0288768e-06
7.6924691e-06
7.0331674e-06
6.2725456e-06
3.277756e-06
2.1679036e-06
1.4303357e-06
8.9993442e-07
5.6977887e-07
3.4286634e-07
1.7400111e-07
7.1143115e-08
2.5308474e-08
8.0567041e-09
2.3389249e-09
6.2134813e-10
1.4904144e-10
3.1295248e-11
5.4791111e-12
7.8531736e-13
1.5531928e-13
1.1474966e-13
1.2247849e-13
3.6532132e-05
1.167111e-05
8.9849525e-06
6.4003414e-06
4.3548891e-06
6.1624437e-06
7.5142733e-06
8.0107973e-06
7.6752682e-06
7.0156353e-06
6.2547835e-06
3.2681542e-06
2.1641435e-06
1.4275686e-06
8.9842974e-07
5.6889133e-07
3.4231136e-07
1.7362501e-07
7.0972653e-08
2.5244221e-08
8.0357772e-09
2.3328477e-09
6.1975255e-10
1.486652e-10
3.1217737e-11
5.4658321e-12
7.8349622e-13
1.5501296e-13
1.1454569e-13
1.2226069e-13
3.6580579e-05
1.1689113e-05
9.000703e-06
6.4166268e-06
4.353816e-06
6.1437452e-06
7.4956752e-06
7.9927405e-06
7.6580858e-06
6.9981135e-06
6.2370476e-06
3.2585604e-06
2.1603719e-06
1.4247907e-06
8.9691522e-07
5.6799621e-07
3.4175158e-07
1.7324671e-07
7.0801374e-08
2.5179703e-08
8.0147711e-09
2.3267482e-09
6.1815116e-10
1.4828759e-10
3.1139943e-11
5.4525052e-12
7.8166946e-13
1.5470664e-13
1.1434221e-13
1.2204345e-13
3.6631846e-05
1.1707104e-05
9.0164588e-06
6.4329894e-06
4.3528886e-06
6.1250754e-06
7.4770966e-06
7.9747054e-06
7.6409218e-06
6.9806033e-06
6.2193384e-06
3.2489759e-06
2.1565894e-06
1.4220021e-06
8.9539097e-07
5.6709342e-07
3.4118681e-07
1.7286606e-07
7.0629163e-08
2.511486e-08
7.9936614e-09
2.3206182e-09
6.1654147e-10
1.4790794e-10
3.1061717e-11
5.4391031e-12
7.7983307e-13
1.5439964e-13
1.1413881e-13
1.2182627e-13
3.668597e-05
1.1725066e-05
9.0322033e-06
6.4494132e-06
4.3521061e-06
6.1064415e-06
7.4585396e-06
7.9566928e-06
7.6237763e-06
6.9631044e-06
6.2016567e-06
3.2394015e-06
2.1527968e-06
1.419204e-06
8.9385774e-07
5.6618356e-07
3.4061752e-07
1.7248329e-07
7.0456154e-08
2.5049756e-08
7.9724733e-09
2.314466e-09
6.1492591e-10
1.4752689e-10
3.0983195e-11
5.4256505e-12
7.7799066e-13
1.5409266e-13
1.1393598e-13
1.2160973e-13
3.6742985e-05
1.1742996e-05
9.0479275e-06
6.4659001e-06
4.3514682e-06
6.0878419e-06
7.440005e-06
7.9387031e-06
7.6066496e-06
6.9456177e-06
6.1840031e-06
3.2298381e-06
2.1489946e-06
1.4163966e-06
8.9231549e-07
5.6526637e-07
3.4004336e-07
1.7209812e-07
7.0282155e-08
2.4984291e-08
7.9511662e-09
2.3082777e-09
6.1330037e-10
1.4714335e-10
3.090414e-11
5.4121041e-12
7.7613632e-13
1.5378506e-13
1.137335e-13
1.2139357e-13
3.6802922e-05
1.1760899e-05
9.0636413e-06
6.48247e-06
4.3509754e-06
6.0692696e-06
7.4214906e-06
7.9207353e-06
7.5895422e-06
6.928145e-06
6.1663782e-06
3.2202869e-06
2.1451837e-06
1.4135805e-06
8.907648e-07
5.6434245e-07
3.3946488e-07
1.7171098e-07
7.0107417e-08
2.4918584e-08
7.9297849e-09
2.302068e-09
6.1166906e-10
1.467584e-10
3.0824783e-11
5.398505e-12
7.7427553e-13
1.5347739e-13
1.1353155e-13
1.2117799e-13
3.6865807e-05
1.1778765e-05
9.0793428e-06
6.4991156e-06
4.3506282e-06
6.0507278e-06
7.4029965e-06
7.902789e-06
7.5724541e-06
6.9106873e-06
6.1487826e-06
3.2107488e-06
2.1413647e-06
1.4107561e-06
8.892058e-07
5.6341173e-07
3.3888191e-07
1.7132174e-07
6.9931839e-08
2.4852579e-08
7.9083066e-09
2.295829e-09
6.1002958e-10
1.4637141e-10
3.0744981e-11
5.3848268e-12
7.7240438e-13
1.5316895e-13
1.1332963e-13
1.2096244e-13
3.6931665e-05
1.1796581e-05
9.0950121e-06
6.5158109e-06
4.350425e-06
6.0322236e-06
7.3845246e-06
7.8848654e-06
7.5553856e-06
6.8932451e-06
6.1312169e-06
3.2012248e-06
2.1375384e-06
1.4079243e-06
8.8763928e-07
5.6247487e-07
3.3829497e-07
1.7093066e-07
6.9755579e-08
2.4786352e-08
7.8867607e-09
2.2895704e-09
6.0838483e-10
1.4598311e-10
3.0664898e-11
5.3710991e-12
7.7052718e-13
1.5286052e-13
1.131283e-13
1.2074755e-13
3.7000516e-05
1.1814342e-05
9.1106356e-06
6.5325526e-06
4.3503638e-06
6.0137571e-06
7.366076e-06
7.8669649e-06
7.5383371e-06
6.8758189e-06
6.1136816e-06
3.191716e-06
2.1337053e-06
1.4050854e-06
8.8606524e-07
5.6153165e-07
3.3770373e-07
1.7053749e-07
6.9578447e-08
2.4719802e-08
7.8651069e-09
2.2832785e-09
6.0673065e-10
1.4559243e-10
3.0584293e-11
5.3572783e-12
7.6863793e-13
1.5255141e-13