/*--------------------------------*- C++ -*----------------------------------*\
| =========                 |                                                 |
| \\      /  F ield         | OpenFOAM: The Open Source CFD Toolbox           |
|  \\    /   O peration     | Version:  v2012                                 |
|   \\  /    A nd           | Website:  www.openfoam.com                      |
|    \\/     M anipulation  |                                                 |
\*---------------------------------------------------------------------------*/
FoamFile
{
    version     2.0;
    format      ascii;
    class       volScalarField;
    location    "450";
    object      omega;
}
// * * * * * * * * * * * * * * * * * * * * * * * * * * * * * * * * * * * * * //

dimensions      [0 0 -1 0 0 0 0];


internalField   nonuniform List<scalar> 
24000
(
2676.1662
3777.0274
5624.1128
13681.82
45315.845
104731.43
157273.42
200411.18
226583.44
226820.42
224848.45
305660.6
590357.66
1044417.8
1540826.3
2020256.7
2532228.9
3203204.3
4243155.7
5980861.7
8947388.4
14065973
23076093
39526488
71335353
1.3831974e+08
2.9856542e+08
7.662845e+08
2.6701463e+09
1.7999103e+10
2677.8478
3777.1808
5620.5625
13653.446
45092.406
104331.64
156864.23
200020.63
226279.55
226611.45
224515.41
304718.25
588306.49
1041306.9
1537064.9
2015913.9
2527150.1
3197176.7
4236202.3
5973165.3
8938863.9
14055777
23062160
39504689
71297202
1.382455e+08
2.9840032e+08
7.6583332e+08
2.6683801e+09
1.7990926e+10
2679.6721
3777.0644
5615.2742
13615.641
44898.454
104056.46
156644.95
199829.33
226130.86
226516.14
224404.39
304388.98
587254.1
1039453.6
1534729.1
2013405.2
2524606.5
3194467.3
4232913.9
5968733.3
8932755
14047497
23050963
39488968
71273314
1.3820503e+08
2.9832226e+08
7.6565687e+08
2.6678878e+09
1.7985618e+10
2681.4789
3777.0055
5609.8877
13578.77
44715.822
103788.38
156413.92
199605.24
225950.67
226381.55
224268.65
304167.34
586649.1
1038257.1
1533109.3
2011625.1
2522851.7
3192913.4
4231768.8
5968183.2
8932787.4
14047914
23051373
39488764
71271465
1.3819928e+08
2.9830607e+08
7.6560451e+08
2.6676452e+09
1.7985037e+10
2683.2743
3776.9602
5604.3772
13541.946
44536.928
103522.38
156178.94
199387.9
225772.3
226234.86
224122.96
304006.82
586255.64
1037367.4
1531735
2009941.1
2521030
3191051.5
4229859.3
5966113.8
8930430.6
14045042
23047592
39483312
71262743
1.3818363e+08
2.9827392e+08
7.6552515e+08
2.6673811e+09
1.7983101e+10
2685.0627
3776.9555
5598.9031
13505.508
44360.713
103257.82
155943.2
199175.03
225592.41
226079.74
223971.31
303877.59
586004.11
1036707.4
1530609.6
2008486.3
2519430.9
3189475.3
4228428.7
5964882.4
8929366.2
14044021
23046389
39481542
71259677
1.3817766e+08
2.9826072e+08
7.6548979e+08
2.667248e+09
1.79824e+10
2686.848
3776.984
5593.4805
13469.419
44186.205
102994.05
155707.61
198964.88
225412.09
225919.55
223815.94
303769.33
585838.98
1036184.2
1529621.1
2007135.2
2517893
3187919
4226977.8
5963590.6
8928210.3
14042903
23045130
39479832
71256923
1.3817254e+08
2.9824975e+08
7.6546114e+08
2.6671432e+09
1.7981806e+10
2688.6325
3777.0388
5588.1131
13433.653
44012.99
102730.79
155472.14
198756.37
225231.64
225756.36
223658.15
303673.98
585729.08
1035749.2
1528723.3
2005858
2516409.8
3186409
4225583.4
5962388.6
8927201.4
14042018
23044237
39478709
71255168
1.3816928e+08
2.9824265e+08
7.6544208e+08
2.6670705e+09
1.7981447e+10
2690.4171
3777.1126
5582.7965
13398.172
43840.805
102467.8
155236.67
198548.89
225051.11
225591.27
223498.7
303586.92
585654.24
1035369.8
1527882.2
2004625.6
2514957.2
3184919.2
4224206.5
5961210.3
8926233.2
14041206
23043472
39477815
71253833
1.3816684e+08
2.9823733e+08
7.6542765e+08
2.6670141e+09
1.7981192e+10
2692.2016
3777.1996
5577.5252
13362.939
43669.489
102204.89
155001.12
198342.06
224870.53
225424.82
223338.32
303505.26
585602.32
1035026.8
1527078.2
2003423
2513525.6
3183444.9
4222845.2
5960054.9
8925302.9
14040457
23042811
39477094
71252803
1.3816498e+08
2.9823324e+08
7.6541634e+08
2.6669686e+09
1.7981009e+10
2693.9855
3777.295
5572.2945
13327.925
43498.932
101941.98
154765.44
198135.65
224689.9
225257.38
223177.27
303427.16
585565.55
1034707.3
1526298.2
2002239.4
2512106.9
3181979.1
4221491.3
5958909.7
8924389.8
14039737
23042200
39476462
71251932
1.3816343e+08
2.9822982e+08
7.6540677e+08
2.6669293e+09
1.7980865e+10
2695.7674
3777.3953
5567.1
13293.105
43329.057
101678.99
154529.57
197929.49
224509.23
225089.32
223015.66
303351.44
585538.97
1034403.6
1525533.9
2001068.3
2510696.9
3180519.1
4220142.7
5957771.6
8923488.7
14039038
23041623
39475886
71251161
1.3816206e+08
2.982268e+08
7.6539826e+08
2.6668938e+09
1.7980745e+10
2697.546
3777.4972
5561.9382
13258.461
43159.812
101415.87
154293.51
197723.46
224328.52
224920.85
222853.52
303277.33
585519.37
1034110.3
1524779.8
1999905.3
2509292.3
3179062.4
4218796.2
5956635.8
8922591.4
14038346
23041058
39475333
71250434
1.3816079e+08
2.9822398e+08
7.6539027e+08
2.6668603e+09
1.7980635e+10
2699.3196
3777.5982
5556.8063
13223.978
42991.16
101152.6
154057.22
197517.5
224147.76
224752.04
222690.75
303204.32
585504.65
1033824.1
1524032.7
1998747.8
2507891.7
3177608.6
4217452.2
5955503.1
8921698.8
14037660
23040505
39474797
71249735
1.3815956e+08
2.9822128e+08
7.6538258e+08
2.6668279e+09
1.7980532e+10
2701.0863
3777.6958
5551.7017
13189.644
42823.07
100889.14
153820.69
197311.54
223966.95
224582.94
222527.07
303132.05
585493.38
1033542.6
1523289.9
1997593.7
2506493.3
3176156.1
4216108.7
5954370.2
8920805.4
14036974
23039950
39474259
71249033
1.3815834e+08
2.9821858e+08
7.6537493e+08
2.6667958e+09
1.7980427e+10
2702.8441
3777.7877
5546.6225
13155.45
42655.525
100625.49
153583.91
197105.55
223786.09
224413.53
222361.84
303060.24
585484.59
1033264.2
1522549.9
1996441.8
2505096.8
3174704.9
4214766.3
5953238.1
8919912.3
14036287
23039393
39473718
71248324
1.381571e+08
2.9821585e+08
7.6536723e+08
2.6667637e+09
1.798032e+10
2704.5911
3777.8717
5541.5669
13121.387
42488.506
100361.63
153346.88
196899.5
223605.17
224243.8
222193.78
302988.65
585477.59
1032987.8
1521811.3
1995291
2503701
3173254.2
4213423.4
5952104.5
8919016.1
14035594
23038827
39473162
71247591
1.3815581e+08
2.9821303e+08
7.6535934e+08
2.6667311e+09
1.7980207e+10
2706.325
3777.9453
5536.5334
13087.451
42322.002
100097.55
153109.59
196693.37
223424.2
224073.69
222020.31
302917.03
585471.94
1032712.8
1521073.7
1994141.1
2502306.3
3171804.5
4212081.7
5950971.6
8918120
14034901
23038259
39472599
71246843
1.381545e+08
2.9821015e+08
7.6535128e+08
2.666698e+09
1.7980089e+10
2708.0435
3778.0063
5531.5207
13053.636
42156.005
99833.253
152872.03
196487.15
223243.17
223903.18
221842.34
302845.23
585467.26
1032438.6
1520336.2
1992991.2
2500911.7
3170355
4210739.5
5949837
8917220.1
14034201
23037678
39472015
71246059
1.3815312e+08
2.9820714e+08
7.6534293e+08
2.666664e+09
1.7979962e+10
2709.7443
3778.0523
5526.5277
13019.938
41990.507
99568.728
152634.2
196280.82
223062.09
223732.26
221660.17
302773.12
585463.32
1032164.6
1519598.6
1991841.2
2499517.5
3168906.1
4209397.8
5948702.2
8916318.6
14033496
23037089
39471417
71245248
1.3815169e+08
2.9820401e+08
7.6533431e+08
2.6666292e+09
1.7979828e+10
2711.425
3778.0808
5521.5531
12986.354
41825.503
99303.972
152396.09
196074.37
222880.95
223560.9
221473.87
302700.6
585459.95
1031890.7
1518860.3
1990690.6
2498122.9
3167457
4208055.3
5947565.1
8915412.3
14032784
23036486
39470795
71244396
1.3815018e+08
2.9820074e+08
7.6532533e+08
2.6665934e+09
1.7979684e+10
2713.083
3778.0893
5516.5959
12952.88
41660.988
99038.981
152157.71
195867.81
222699.77
223389.1
221283.99
302627.62
585457.09
1031616.8
1518121.5
1989539.6
2496728.6
3166008.7
4206713.6
5946428.4
8914505.4
14032068
23035877
39470161
71243519
1.3814862e+08
2.9819735e+08
7.6531608e+08
2.6665567e+09
1.7979532e+10
2714.7156
3778.075
5511.655
12919.515
41496.961
98773.752
151919.04
195661.13
222518.55
223216.87
221090.58
302554.12
585454.62
1031342.6
1517381.8
1988387.8
2495333.9
3164560.1
4205371.3
5945289.6
8913593.8
14031344
23035253
39469501
71242598
1.3814698e+08
2.981938e+08
7.6530645e+08
2.6665189e+09
1.797937e+10
2716.3201
3778.0353
5506.7294
12886.257
41333.42
98508.282
151680.08
195454.32
222337.29
223044.21
220894.12
302480.1
585452.51
1031068.1
1516641.2
1987235.3
2493939.1
3163112.1
4204029.5
5944150.6
8912680.4
14030616
23034620
39468824
71241645
1.3814528e+08
2.9819012e+08
7.652965e+08
2.6664801e+09
1.7979198e+10
2717.8935
3777.9674
5501.818
12853.103
41170.363
98242.567
151440.84
195247.39
222155.99
222871.14
220694.76
302405.55
585450.71
1030793.3
1515899.5
1986081.7
2492543.7
3161663.5
4202686.7
5943009.1
8911761.9
14029878
23033972
39468121
71240648
1.381435e+08
2.9818627e+08
7.6528615e+08
2.66644e+09
1.7979017e+10
2719.4331
3777.8682
5496.9199
12820.053
41007.792
97976.604
151201.29
195040.34
221974.68
222697.69
220492.86
302330.48
585449.26
1030518.2
1515157
1984927.4
2491148.3
3160215.6
4201344.8
5941868.2
8910842.8
14029137
23033317
39467405
71239623
1.3814166e+08
2.9818231e+08
7.6527551e+08
2.6663991e+09
1.7978827e+10
2720.9356
3777.7347
5492.0341
12787.105
40845.706
97710.391
150961.44
194833.17
221793.36
222523.87
220288.59
302254.92
585448.12
1030242.8
1514413.5
1983772.2
2489752.3
3158767.4
4200002.1
5940724.9
8909918.8
14028388
23032647
39466663
71238554
1.3813974e+08
2.9817817e+08
7.6526447e+08
2.666357e+09
1.7978626e+10
2722.3979
3777.564
5487.1596
12754.258
40684.105
97443.924
150721.28
194625.87
221612.02
222349.71
220082.18
302178.91
585447.31
1029967.2
1513669.1
1982616.2
2488356.1
3157319.6
4198659.8
5939581.4
8908993
14027634
23031967
39465903
71237452
1.3813775e+08
2.981739e+08
7.6525311e+08
2.6663138e+09
1.7978416e+10
2723.8167
3777.3526
5482.2955
12721.512
40522.987
97177.203
150480.81
194418.45
221430.7
222175.24
219873.83
302102.5
585446.8
1029691.3
1512923.8
1981459.2
2486959.2
3155871.2
4197316.4
5938435.4
8908061.9
14026870
23031271
39465117
71236303
1.3813568e+08
2.9816946e+08
7.6524133e+08
2.6662694e+09
1.7978195e+10
2725.1887
3777.0974
5477.4409
12688.865
40362.353
96910.227
150240.03
194210.91
221249.38
222000.49
219663.74
302025.75
585446.67
1029415.3
1512177.8
1980301.6
2485562.4
3154423.5
4195974
5937289.8
8907130.3
14026104
23030569
39464317
71235129
1.3813356e+08
2.9816491e+08
7.6522927e+08
2.6662241e+09
1.7977966e+10
2726.5104
3776.7949
5472.5946
12656.318
40202.203
96642.993
149998.92
194003.25
221068.09
221825.49
219452.1
301948.76
585446.89
1029139.1
1511431
1979143.2
2484165
3152975.3
4194630.6
5936141.9
8906193.6
14025329
23029852
39463491
71233909
1.3813135e+08
2.9816018e+08
7.6521681e+08
2.6661775e+09
1.7977726e+10
2727.7782
3776.4418
5467.7558
12623.87
40042.536
96375.503
149757.5
193795.46
220886.83
221650.28
219239.07
301871.62
585447.5
1028863
1510683.7
1977984.2
2482767.6
3151527.7
4193287.8
5934993.9
8905255.4
14024549
23029126
39462649
71232657
1.3812909e+08
2.9815532e+08
7.6520403e+08
2.66613e+09
1.7977477e+10
2728.9884
3776.0344
5462.9235
12591.521
39883.353
96107.754
149515.74
193587.55
220705.62
221474.9
219024.85
301794.48
585448.5
1028586.8
1509935.8
1976824.4
2481369.5
3150079.4
4191943.8
5933843.3
8904311.9
14023761
23028384
39461780
71231361
1.3812674e+08
2.981503e+08
7.6519085e+08
2.6660812e+09
1.7977218e+10
2730.1374
3775.5691
5458.0968
12559.271
39724.655
95839.745
149273.66
193379.5
220524.45
221299.36
218809.59
301717.48
585449.95
1028310.8
1509187.6
1975664.4
2479971.7
3148631.9
4190601.1
5932693.8
8903368.7
14022970
23027637
39460901
71230042
1.3812434e+08
2.9814517e+08
7.6517741e+08
2.6660317e+09
1.7976951e+10
2731.2212
3775.0423
5453.2745
12527.12
39566.443
95571.479
149031.24
193171.33
220343.33
221123.71
218593.44
301640.8
585451.81
1028034.9
1508439
1974503.9
2478573.4
3147184
4189257.3
5931541.7
8902420.4
14022171
23026875
39459996
71228678
1.3812186e+08
2.9813987e+08
7.6516357e+08
2.6659808e+09
1.7976674e+10
2732.2359
3774.4503
5448.4558
12495.069
39408.717
95302.95
148788.48
192963.02
220162.28
220947.98
218376.53
301564.66
585454.09
1027759.3
1507690.2
1973343.1
2477175.2
3145736.7
4187914.2
5930389.8
8901470.9
14021368
23026105
39459075
71227285
1.3811932e+08
2.9813445e+08
7.6514943e+08
2.6659291e+09
1.7976389e+10
2733.1776
3773.7892
5443.6395
12463.117
39251.479
95034.163
148545.38
192754.56
219981.29
220772.19
218159
301489.32
585456.72
1027483.9
1506941.1
1972181.7
2475776.5
3144288.8
4186569.8
5929235
8900515.9
14020555
23025319
39458128
71225847
1.381167e+08
2.9812887e+08
7.6513489e+08
2.6658761e+09
1.7976093e+10
2734.0421
3773.0551
5438.8245
12431.266
39094.732
94765.114
148301.92
192545.97
219800.38
220596.36
217940.93
301415.1
585459.74
1027208.8
1506192.2
1971020.5
2474378.3
3142841.8
4185226.7
5928081.6
8899561.7
14019742
23024530
39457173
71224390
1.3811404e+08
2.9812319e+08
7.6512012e+08
2.6658223e+09
1.797579e+10
2734.8253
3772.2442
5434.01
12399.516
38938.476
94495.804
148058.11
192337.22
219619.55
220420.53
217722.41
301342.37
585463
1026934.1
1505443.2
1969859.1
2472979.9
3141394.5
4183882.7
5926925.7
8898602.3
14018919
23023725
39456192
71222888
1.381113e+08
2.9811734e+08
7.6510495e+08
2.6657673e+09
1.7975478e+10
2735.5229
3771.3525
5429.1948
12367.868
38782.714
94226.234
147813.93
192128.32
219438.8
220244.7
217503.37
301270.79
585466.37
1026659.7
1504694.4
1968697.8
2471581.9
3139948
4182539.5
5925770.3
8897642.3
14018094
23022914
39455197
71221361
1.381085e+08
2.9811139e+08
7.650895e+08
2.6657114e+09
1.7975157e+10
2736.1308
3770.3762
5424.378
12336.323
38627.449
93956.403
147569.39
191919.27
219258.13
220068.85
217283.58
301198.6
585469.64
1026385.7
1503945.7
1967536.2
2470183.4
3138500.8
4181195
5924612
8896676.8
14017259
23022088
39454177
71219791
1.3810563e+08
2.9810527e+08
7.6507367e+08
2.6656543e+09
1.7974828e+10
2736.6446
3769.3111
5419.5587
12304.882
38472.682
93686.312
147324.47
191710.04
219077.56
219893.02
217063.11
301125.83
585472.87
1026112.3
1503197.5
1966375.2
2468785.7
3137054.8
4179852.2
5923455.4
8895712.9
14016425
23021260
39453152
71218206
1.3810272e+08
2.9809908e+08
7.6505764e+08
2.6655965e+09
1.7974492e+10
2737.0599
3768.1533
5414.7358
12273.546
38318.418
93415.964
147079.18
191500.64
218897.07
219717.23
216842.04
301052.47
585475.97
1025839.3
1502449.6
1965214.2
2467387.9
3135608.5
4178508.3
5922296.4
8894743.8
14015582
23020416
39452101
71216578
1.3809974e+08
2.9809273e+08
7.6504122e+08
2.6655374e+09
1.7974147e+10
2737.3725
3766.8988
5409.9085
12242.318
38164.66
93145.357
146833.5
191291.07
218716.68
219541.5
216620.45
300978.55
585478.94
1025566.8
1501702.2
1964053.7
2465990.7
3134163
4177165.4
5921138
8893774.5
14014737
23019568
39451040
71214928
1.3809671e+08
2.9808627e+08
7.6502454e+08
2.6654776e+09
1.7973796e+10
2737.5778
3765.5438
5405.0757
12211.197
38011.41
92874.496
146587.43
191081.32
218536.37
219365.85
216398.4
300904.07
585481.71
1025294.8
1500955.2
1962893.3
2464593.3
3132717
4175821
5919976.6
8892799.7
14013883
23018704
39449953
71213235
1.380936e+08
2.9807966e+08
7.6500748e+08
2.6654164e+09
1.7973434e+10
2737.6717
3764.0841
5400.2367
12180.185
37858.672
92603.38
146340.96
190871.37
218356.16
219190.3
216175.94
300829.07
585484.32
1025023.5
1500209
1961733.7
2463196.9
3131272.3
4174478.4
5918817.2
8891826.7
14013029
23017840
39448862
71211531
1.3809047e+08
2.9807298e+08
7.6499024e+08
2.6653546e+09
1.7973069e+10
2737.6497
3762.5159
5395.3905
12149.285
37706.45
92332.012
146094.1
190661.23
218176.05
219014.88
215953.14
300753.54
585486.7
1024752.7
1499463.3
1960574.5
2461800.6
3129827.3
4173134.7
5917655.2
8890848.7
14012167
23016961
39447746
71209785
1.3808725e+08
2.9806615e+08
7.6497261e+08
2.6652916e+09
1.7972694e+10
2737.5074
3760.8355
5390.5362
12118.498
37554.747
92060.394
145846.82
190450.89
217996.02
218839.58
215730.04
300677.51
585488.81
1024482.5
1498718.5
1959416
2460405.2
3128383.4
4171792.1
5916494
8889870.6
14011303
23016077
39446621
71208019
1.38084e+08
2.9805922e+08
7.6495474e+08
2.6652277e+09
1.7972313e+10
2737.2405
3759.0389
5385.6731
12087.824
37403.567
91788.529
145599.14
190240.34
217816.08
218664.44
215506.69
300600.98
585490.61
1024212.8
1497974.2
1958258
2459009.9
3126939
4170448.3
5915330.1
8888887.4
14010431
23015179
39445472
71206212
1.3808067e+08
2.9805214e+08
7.6493651e+08
2.6651625e+09
1.7971923e+10
2736.8449
3757.1224
5380.8002
12057.267
37252.914
91516.421
145351.05
190029.58
217636.23
218489.45
215283.12
300523.97
585492.14
1023943.7
1497230.9
1957101.1
2457615.8
3125496.3
4169106.5
5914168.5
8887906.6
14009560
23014282
39444321
71204398
1.3807732e+08
2.98045e+08
7.6491811e+08
2.6650968e+09
1.797153e+10
2736.3162
3755.0825
5375.9169
12026.826
37102.791
91244.071
145102.53
189818.59
217456.47
218314.64
215059.38
300446.49
585493.3
1023675.2
1496488.4
1955944.8
2456222.1
3124053.4
4167763.8
5913004.5
8886921
14008681
23013371
39443148
71202544
1.380739e+08
2.9803772e+08
7.6489934e+08
2.6650298e+09
1.7971128e+10
2735.6504
3752.9155
5371.0222
11996.504
36953.203
90971.482
144853.59
189607.39
217276.79
218140
214835.5
300368.55
585494.08
1023407.2
1495746.8
1954789.5
2454829.5
3122611.8
4166422.3
5911841.5
8885935.8
14007801
23012456
39441966
71200673
1.3807044e+08
2.9803035e+08
7.6488035e+08
2.664962e+09
1.7970721e+10
2734.8434
3750.6181
5366.1156
11966.302
36804.153
90698.659
144604.22
189395.95
217097.18
217965.55
214611.51
300290.15
585494.41
1023139.6
1495005.8
1953634.8
2453437.1
3121169.9
4165079.6
5910675.9
8884945.5
14006912
23011528
39440761
71198764
1.3806691e+08
2.9802283e+08
7.64861e+08
2.664893e+09
1.7970306e+10
2733.8913
3748.187
5361.1963
11936.221
36655.644
90425.605
144354.42
189184.28
216917.66
217791.29
214387.44
300211.33
585494.35
1022872.5
1494265.9
1952481.4
2452046.1
3119729.6
4163739
5909512.6
8883957.7
14006026
23010600
39439555
71196847
1.3806337e+08
2.9801526e+08
7.6484148e+08
2.6648233e+09
1.7969888e+10
2732.7903
3745.619
5356.2638
11906.263
36507.68
90152.323
144104.18
188972.37
216738.21
217617.23
214163.3
300132.08
585493.81
1022605.9
1493526.7
1951328.7
2450655.6
3118289.4
4162397.5
5908347
8882965.3
14005132
23009660
39438327
71194894
1.3805975e+08
2.9800755e+08
7.6482161e+08
2.6647524e+09
1.7969462e+10
2731.5366
3742.9112
5351.3177
11876.428
36360.266
89878.819
143853.51
188760.22
216558.84
217443.36
213939.13
300052.43
585492.81
1022339.7
1492788.5
1950177.2
2449266.4
3116850.4
4161057.3
5907182.4
8881973.4
14004237
23008716
39437093
71192925
1.380561e+08
2.9799976e+08
7.6480153e+08
2.6646806e+09
1.7969031e+10
2730.1268
3740.0607
5346.3573
11846.719
36213.403
89605.098
143602.39
188547.82
216379.53
217269.71
213714.94
299972.38
585491.3
1022073.9
1492051
1949026.4
2447877.5
3115411.3
4159716.1
5906015.5
8880976.9
14003334
23007760
39435837
71190920
1.3805238e+08
2.9799184e+08
7.647811e+08
2.6646077e+09
1.7968593e+10
2728.5575
3737.0649
5341.3824
11817.135
36067.097
89331.161
143350.83
188335.17
216200.3
217096.26
213490.74
299891.97
585489.35
1021808.5
1491314.6
1947877
2446490.2
3113974
4158377
5904851
8879983
14002433
23006805
39434581
71188910
1.3804865e+08
2.9798387e+08
7.6476052e+08
2.6645341e+09
1.7968153e+10
2726.8254
3733.9215
5336.3926
11787.678
35921.349
89057.015
143098.82
188122.26
216021.12
216923.01
213266.56
299811.2
585486.88
1021543.5
1490579
1946728.4
2445103.5
3112536.8
4157037.2
5903684.4
8878984.9
14001525
23005839
39433305
71186866
1.3804485e+08
2.9797577e+08
7.6473961e+08
2.6644593e+09
1.7967705e+10
2724.9276
3730.6282
5331.3877
11758.348
35776.162
88782.665
142846.36
187909.09
215842.02
216749.98
213042.41
299730.11
585483.9
1021278.9
1489844.3
1945581.2
2443718.2
3111101
4155698.8
5902518.9
8877987.5
14000617
23004870
39432023
71184809
1.3804103e+08
2.9796759e+08
7.6471849e+08
2.6643837e+09
1.7967254e+10
2722.8613
3727.1831
5326.3675
11729.146
35631.539
88508.115
142593.45
187695.67
215662.97
216577.16
212818.31
299648.74
585480.38
1021014.4
1489110.3
1944434.7
2442333.4
3109665.3
4154359.6
5901351.4
8876985.8
13999702
23003889
39430721
71182718
1.3803714e+08
2.9795928e+08
7.6469704e+08
2.6643069e+09
1.7966795e+10
2720.6238
3723.5844
5321.3319
11700.071
35487.482
88233.369
142340.08
187481.97
215483.98
216404.54
212594.26
299567.17
585476.38
1020750.4
1488377.3
1943289.6
2440950.3
3108231.3
4153022.3
5900186
8875986.6
13998789
23002909
39429419
71180623
1.3803324e+08
2.9795094e+08
7.6467545e+08
2.6642295e+09
1.7966335e+10
2718.2129
3719.8307
5316.2808
11671.123
35343.992
87958.434
142086.25
187268.01
215305.05
216232.14
212370.28
299485.42
585471.87
1020486.6
1487645.1
1942145.5
2439568
3106797.6
4151684.6
5899018.9
8874983.5
13997869
23001919
39428099
71178496
1.3802928e+08
2.9794246e+08
7.6465354e+08
2.6641509e+09
1.7965868e+10
2715.6265
3715.9208
5311.2143
11642.301
35201.073
87683.312
141831.96
187053.78
215126.18
216059.95
212146.38
299403.45
585466.85
1020223.1
1486913.8
1941002.7
2438187.1
3105365.6
4150348.5
5897853.1
8873981.4
13996949
23000927
39426774
71176357
1.3802529e+08
2.9793393e+08
7.6463144e+08
2.6640715e+09
1.7965398e+10
2712.8627
3711.8538
5306.1325
11613.605
35058.723
87408.008
141577.21
186839.27
214947.35
215887.96
211922.57
299321.29
585461.28
1019959.6
1486183.1
1939860.7
2436806.9
3103933.7
4149011.7
5896685.5
8872975.4
13996023
22999924
39425431
71174188
1.3802124e+08
2.9792527e+08
7.6460904e+08
2.663991e+09
1.7964922e+10
2709.92
3707.629
5301.0356
11585.035
34916.942
87132.526
141322
186624.48
214768.58
215716.18
211698.85
299238.93
585455.25
1019696.6
1485453.4
1938720.3
2435428.4
3102503.8
4147677.3
5895520.5
8871972.6
13995099
22998924
39424090
71172019
1.3801719e+08
2.9791659e+08
7.6458653e+08
2.66391e+09
1.7964444e+10
2706.797
3703.2461
5295.9237
11556.587
34775.731
86856.873
141066.32
186409.4
214589.85
215544.61
211475.23
299156.37
585448.68
1019433.6
1484724.4
1937580.7
2434050.7
3101074.3
4146342.4
5894353.8
8870965.9
13994169
22997913
39422732
71169819
1.3801308e+08
2.9790778e+08
7.6456371e+08
2.6638278e+09
1.7963961e+10
2703.4928
3698.7051
5290.7972
11528.26
34635.094
86581.053
140810.17
186194.04
214411.17
215373.23
211251.71
299073.59
585441.6
1019170.8
1483996.1
1936442.4
2432674.6
3099646.4
4145009.2
5893188.6
8869960.5
13993240
22996901
39421370
71167609
1.3800895e+08
2.9789892e+08
7.6454072e+08
2.663745e+09
1.7963475e+10
2700.0067
3694.0062
5285.6566
11500.053
34495.027
86305.066
140553.56
185978.39
214232.53
215202.06
211028.3
298990.59
585433.98
1018908
1483268.4
1935304.9
2431299.2
3098218.7
4143675.3
5892021.5
8868951.1
13992304
22995878
39419989
71165370
1.3800477e+08
2.9788995e+08
7.6451743e+08
2.663661e+09
1.7962983e+10
2696.3384
3689.15
5280.5024
11471.963
34355.526
86028.918
140296.47
185762.45
214053.92
215031.08
210805
298907.33
585425.86
1018645.4
1482541.6
1934168.9
2429925.5
3096793.1
4142343.9
5890857.3
8867945.1
13991372
22994860
39418613
71163132
1.3800058e+08
2.9788095e+08
7.6449406e+08
2.6635765e+09
1.796249e+10
2692.4877
3684.1376
5275.3353
11443.986
34216.59
85752.614
140038.9
185546.2
213875.36
214860.29
210581.81
298823.76
585417.2
1018382.8
1481815.4
1933033.7
2428552.6
3095367.9
4141012
5889691.2
8866935.3
13990433
22993830
39417219
71160865
1.3799633e+08
2.9787184e+08
7.6447038e+08
2.663491e+09
1.7961992e+10
2688.455
3678.9701
5270.1557
11416.12
34078.221
85476.158
139780.87
185329.66
213696.83
214689.7
210358.74
298739.91
585408.02
1018120.3
1481089.9
1931899.8
2427181.3
3093944.4
4139682
5888526.8
8865926.9
13989495
22992800
39415822
71158590
1.3799207e+08
2.9786267e+08
7.6444655e+08
2.6634048e+09
1.7961491e+10
2684.2408
3673.6491
5264.9644
11388.361
33940.415
85199.551
139522.36
185112.82
213518.33
214519.3
210135.78
298655.78
585398.29
1017857.8
1480364.8
1930766.6
2425810.6
3092521.1
4138351.2
5887360.4
8864914.4
13988550
22991759
39414407
71156285
1.3798775e+08
2.978534e+08
7.6442244e+08
2.6633175e+09
1.7960985e+10
2679.8461
3668.1765
5259.7624
11360.704
33803.167
84922.797
139263.37
184895.67
213339.86
214349.07
209912.93
298571.42
585388.08
1017595.4
1479640.6
1929634.8
2424441.8
3091100
4137023.1
5886197.3
8863906
13987609
22990723
39412998
71153986
1.3798344e+08
2.9784412e+08
7.6439826e+08
2.6632298e+09
1.7960478e+10
2675.2722
3662.5547
5254.5504
11333.145
33666.472
84645.897
139003.9
184678.2
213161.42
214179.03
209690.21
298486.81
585377.34
1017332.9
1478916.9
1928504
2423073.7
3089679.2
4135694.5
5885032.2
8862893.6
13986662
22989677
39411572
71151656
1.3797907e+08
2.9783472e+08
7.6437379e+08
2.6631411e+09
1.7959966e+10
2670.5206
3656.7861
5249.3293
11305.679
33530.327
84368.855
138743.95
184460.42
212983
214009.17
209467.6
298401.98
585366.07
1017070.4
1478193.8
1927374.3
2421707.3
3088260.2
4134367.7
5883869
8861882.8
13985716
22988631
39410144
71149321
1.3797468e+08
2.9782528e+08
7.6434919e+08
2.6630518e+09
1.7959452e+10
2665.5932
3650.8738
5244.1001
11278.299
33394.727
84091.673
138483.52
184242.33
212804.61
213839.48
209245.11
298316.94
585354.25
1016807.8
1477471.1
1926245.3
2420341.4
3086841.3
4133040.1
5882703.5
8860867.7
13984763
22987573
39408697
71146956
1.3797024e+08
2.9781572e+08
7.643243e+08
2.6629614e+09
1.7958932e+10
2660.4925
3644.8209
5238.8637
11251.001
33259.666
83814.351
138222.6
184023.9
212626.23
213669.96
209022.75
298231.72
585341.95
1016545.2
1476749.2
1925117.9
2418977.4
3085424.6
4131715.3
5881541.4
8859856.6
13983815
22986520
39407257
71144596
1.379658e+08
2.9780616e+08
7.6429936e+08
2.6628707e+09
1.7958413e+10
2655.2209
3638.631
5233.6211
11223.776
33125.136
83536.889
137961.2
183805.15
212447.87
213500.61
208800.51
298146.31
585329.12
1016282.5
1476027.7
1923991.2
2417614.4
3084008.5
4130390
5880377.3
8858841.6
13982859
22985457
39405799
71142207
1.3796131e+08
2.9779649e+08
7.6427413e+08
2.6627789e+09
1.7957887e+10
2649.7814
3632.308
5228.3734
11196.62
32991.131
83259.288
137699.32
183586.06
212269.52
213331.42
208578.4
298060.72
585315.75
1016019.7
1475306.8
1922865.8
2416252.9
3082594.2
4129066.8
5879215.3
8857828.3
13981906
22984394
39404339
71139812
1.3795681e+08
2.9778678e+08
7.6424878e+08
2.6626867e+09
1.795736e+10
2644.1773
3625.856
5223.1214
11169.522
32857.642
82981.547
137436.94
183366.63
212091.18
213162.38
208356.41
297974.97
585301.82
1015756.6
1474586.2
1921741
2414892.1
3081180.2
4127742.8
5878051.1
8856810.8
13980945
22983320
39402862
71137389
1.3795225e+08
2.9777697e+08
7.6422316e+08
2.6625934e+09
1.7956827e+10
2638.4121
3619.2794
5217.8662
11142.476
32724.662
82703.666
137174.07
183146.85
211912.84
212993.5
208134.54
297889.07
585287.42
1015493.5
1473866.3
1920617.7
2413533.2
3079768.5
4126421.8
5876890.5
8855797.9
13979989
22982252
39401392
71134973
1.379477e+08
2.9776715e+08
7.6419751e+08
2.6624999e+09
1.7956295e+10
2632.4897
3612.5831
5212.6089
11115.473
32592.181
82425.644
136910.71
182926.71
211734.49
212824.76
207912.8
297803.01
585272.44
1015230
1473146.6
1919495.1
2412175.2
3078357.3
4125100.4
5875728
8854780.9
13979027
22981173
39399904
71132528
1.379431e+08
2.9775722e+08
7.6417158e+08
2.6624054e+09
1.7955757e+10
2626.4143
3605.7718
5207.3507
11088.504
32460.189
82147.477
136646.85
182706.21
211556.13
212656.16
207691.18
297716.81
585256.92
1014966.4
1472427.4
1918373.6
2410818.8
3076948
4123781
5874567.6
8853765.7
13978066
22980095
39398416
71130078
1.3793848e+08
2.9774726e+08
7.6414553e+08
2.6623104e+09
1.7955217e+10
2620.1904
3598.8511
5202.0924
11061.56
32328.677
81869.164
136382.5
182485.33
211377.76
212487.7
207469.69
297630.47
585240.8
1014702.3
1471708.3
1917252.7
2409463
3075538.9
4122460.8
5873404.8
8852746
13977097
22979005
39396908
71127597
1.3793381e+08
2.9773718e+08
7.641192e+08
2.6622143e+09
1.7954671e+10
2613.8226
3591.8262
5196.8352
11034.631
32197.633
81590.703
136117.65
182264.08
211199.36
212319.38
207248.33
297544
585224.18
1014438.1
1470989.9
1916133.2
2408109.1
3074132.1
4121143.5
5872245.6
8851730.7
13976134
22977921
39395408
71125123
1.3792914e+08
2.9772711e+08
7.6409284e+08
2.6621181e+09
1.7954126e+10
2607.316
3584.7029
5191.5801
11007.707
32067.047
81312.088
135852.29
182042.44
211020.94
212151.18
207027.08
297457.41
585206.98
1014173.5
1470271.5
1915014.3
2406756
3072725.8
4119825.7
5871084.3
8850711.1
13975163
22976826
39393889
71122619
1.3792442e+08
2.9771692e+08
7.640662e+08
2.6620208e+09
1.7953574e+10
2600.6758
3577.4872
5186.328
10980.777
31936.906
81033.318
135586.43
181820.41
210842.48
211983.09
206805.96
297370.7
585189.23
1013908.5
1469553.5
1913896.6
2405404.6
3071321.5
4118510
5869925.1
8849693.3
13974194
22975731
39392369
71120110
1.3791969e+08
2.9770669e+08
7.6403943e+08
2.661923e+09
1.7953021e+10
2593.9074
3570.1852
5181.08
10953.831
31807.199
80754.387
135320.07
181597.97
210663.99
211815.12
206584.97
297283.86
585170.87
1013643
1468835.5
1912779.2
2404053.6
3069917.2
4117193.5
5868763.6
8848671
13973217
22974624
39390830
71117569
1.379149e+08
2.9769635e+08
7.6401239e+08
2.6618243e+09
1.7952461e+10
2587.0166
3562.8031
5175.837
10926.857
31677.912
80475.289
135053.2
181375.11
210485.44
211647.26
206364.09
297196.92
585151.99
1013377.3
1468118
1911663.2
2402704.6
3068515.4
4115880
5867605.6
8847652.9
13972245
22973522
39389296
71115035
1.3791011e+08
2.97686e+08
7.6398531e+08
2.6617252e+09
1.7951901e+10
2580.0091
3555.3474
5170.5998
10899.843
31549.033
80196.019
134785.83
181151.83
210306.84
211479.5
206143.33
297109.87
585132.52
1013111
1467400.5
1910547.8
2401356.3
3067114
4114565.9
5866445.6
8846630.7
13971266
22972409
39387745
71112470
1.3790527e+08
2.9767555e+08
7.6395793e+08
2.6616252e+09
1.7951336e+10
2572.8911
3547.8246
5165.3693
10872.778
31420.548
79916.572
134517.94
180928.11
210128.16
211311.84
205922.69
297022.7
585112.45
1012844.3
1466683.2
1909433.3
2400009.5
3065714.4
4113253.8
5865287.3
8845609.8
13970287
22971296
39386191
71109896
1.3790041e+08
2.9766504e+08
7.6393043e+08
2.6615246e+09
1.7950767e+10
2565.6687
3540.2414
5160.1461
10845.65
31292.442
79636.939
134249.54
180703.94
209949.42
211144.26
205702.17
296935.42
585091.76
1012577
1465965.8
1908319.2
2398663.2
3064315
4111940.9
5864126.8
8844584.4
13969301
22970170
39384617
71107291
1.3789549e+08
2.9765441e+08
7.6390262e+08
2.661423e+09
1.7950192e+10
2558.3483
3532.6047
5154.9311
10818.446
31164.702
79357.112
133980.63
180479.3
209770.58
210976.76