/*--------------------------------*- C++ -*----------------------------------*\
| =========                 |                                                 |
| \\      /  F ield         | OpenFOAM: The Open Source CFD Toolbox           |
|  \\    /   O peration     | Version:  v2012                                 |
|   \\  /    A nd           | Website:  www.openfoam.com                      |
|    \\/     M anipulation  |                                                 |
\*---------------------------------------------------------------------------*/
FoamFile
{
    version     2.0;
    format      ascii;
    class       surfaceScalarField;
    location    "450";
    object      phi;
}
// * * * * * * * * * * * * * * * * * * * * * * * * * * * * * * * * * * * * * //

dimensions      [1 0 -1 0 0 0 0];
oriented        oriented;


internalField   nonuniform List<scalar> 
47170
(
-7.566029e-09
-4.1587868e-05
-1.2244555e-08
-3.4484297e-05
-1.2836644e-08
-2.78469e-05
-1.2453522e-08
-2.1609346e-05
-1.4253344e-08
-1.5344407e-05
-1.2680829e-08
-9.7778011e-06
-9.1051655e-09
-6.2143119e-06
-6.36094e-09
-4.0831901e-06
-4.5141278e-09
-2.7745047e-06
-3.2975699e-09
-1.9330377e-06
-2.5490951e-09
-1.3736357e-06
-2.078973e-09
-9.6815619e-07
-1.692018e-09
-6.6291285e-07
-1.3636521e-09
-4.5106036e-07
-1.0955418e-09
-3.0651891e-07
-8.7641765e-10
-2.0790207e-07
-6.9675094e-10
-1.4076177e-07
-5.4950263e-10
-9.5044393e-08
-4.26875e-10
-6.3936635e-08
-3.2438566e-10
-4.2817304e-08
-2.3897295e-10
-2.8512646e-08
-1.6968095e-10
-1.8843199e-08
-1.1518674e-10
-1.2323455e-08
-7.4214611e-11
-7.9433824e-09
-4.4731637e-11
-5.0159367e-09
-2.4675061e-11
-3.0732693e-09
-1.19131e-11
-1.7965811e-09
-4.5513241e-12
-9.6865378e-10
-9.9241609e-13
-4.416084e-10
-1.1492691e-10
-8.7118549e-09
-4.1579156e-05
-1.5628098e-08
-3.447738e-05
-1.9783563e-08
-2.7842744e-05
-2.0246963e-08
-2.1608882e-05
-1.3920053e-08
-1.5350733e-05
-5.9539988e-09
-9.7857671e-06
-1.8596914e-09
-6.2184058e-06
-2.7685148e-10
-4.084773e-06
2.3285582e-10
-2.775014e-06
1.8627972e-10
-1.9329912e-06
-4.1909255e-11
-1.3734072e-06
-2.279781e-10
-9.6797021e-07
-3.2351831e-10
-6.6281707e-07
-3.6572792e-10
-4.5101826e-07
-3.7605221e-10
-3.0650843e-07
-3.6187539e-10
-2.0791637e-07
-3.2901902e-10
-1.4079454e-07
-2.8406964e-10
-9.508945e-08
-2.3324575e-10
-6.3987411e-08
-1.8271222e-10
-4.2867915e-08
-1.3655109e-10
-2.8558788e-08
-9.7418531e-11
-1.8882378e-08
-6.6094536e-11
-1.2354774e-08
-4.2409424e-11
-7.9670887e-09
-2.5396337e-11
-5.0329469e-09
-1.388586e-11
-3.0847906e-09
-6.603543e-12
-1.8038512e-09
-2.4575931e-12
-9.7279302e-10
-5.0831003e-13
-4.4355292e-10
-1.1543522e-10
-9.3268779e-09
-4.1569829e-05
-1.6945565e-08
-3.4469762e-05
-2.1464883e-08
-2.7838225e-05
-2.1015045e-08
-2.1609332e-05
-1.2761115e-08
-1.5358987e-05
-4.0671725e-09
-9.794461e-06
-6.5024119e-11
-6.2224078e-06
1.2777818e-09
-4.0861158e-06
1.540794e-09
-2.7752768e-06
1.2885472e-09
-1.9327391e-06
8.7470618e-10
-1.3729932e-06
5.1963637e-10
-9.6761527e-07
3.0994539e-10
-6.6260726e-07
1.9976866e-10
-4.5090823e-07
1.4430963e-10
-3.0645288e-07
1.1783217e-10
-2.0789002e-07
1.0368268e-10
-1.4078033e-07
9.2169402e-11
-9.5078038e-08
7.9751028e-11
-6.397496e-08
6.5780393e-11
-4.285401e-08
5.1588354e-11
-2.8544576e-08
3.8280014e-11
-1.8869109e-08
2.6868551e-11
-1.2343351e-08
1.7695954e-11
-7.9579373e-09
1.0840318e-11
-5.0260899e-09
6.0335758e-12
-3.0799891e-09
2.9144637e-12
-1.800742e-09
1.0994156e-12
-9.7098595e-10
2.2994776e-13
-4.4268911e-10
-1.1520528e-10
-9.8240267e-09
-4.1560005e-05
-1.7886287e-08
-3.44617e-05
-2.2494545e-08
-2.7833616e-05
-2.1424984e-08
-2.1610401e-05
-1.2193738e-08
-1.5368218e-05
-3.0148755e-09
-9.8036399e-06
1.0530138e-09
-6.2264756e-06
2.3883629e-09
-4.0874513e-06
2.5103222e-09
-2.7753987e-06
2.0853651e-09
-1.9323142e-06
1.5008098e-09
-1.3724086e-06
9.6926747e-10
-9.6708386e-07
6.018099e-10
-6.6223971e-07
3.6549743e-10
-4.5067204e-07
2.1200179e-10
-3.0629931e-07
1.1400654e-10
-2.0779213e-07
5.3337045e-11
-1.4071961e-07
1.7473425e-11
-9.5042244e-08
-1.6526094e-12
-6.3955794e-08
-1.0210451e-11
-4.2845489e-08
-1.2423545e-11
-2.8542337e-08
-1.140499e-11
-1.887014e-08
-9.0166563e-12
-1.2345723e-08
-6.4167494e-12
-7.9605364e-09
-4.1319216e-12
-5.0283614e-09
-2.3948235e-12
-3.0817262e-09
-1.1861755e-12
-1.80193e-09
-4.5648341e-13
-9.7170162e-10
-9.5627388e-14
-4.4304001e-10
-1.153009e-10
-1.0141972e-08
-4.1549864e-05
-1.8389418e-08
-3.4453452e-05
-2.2903801e-08
-2.7829102e-05
-2.143075e-08
-2.1611874e-05
-1.182064e-08
-1.5377828e-05
-2.4817077e-09
-9.8129789e-06
1.6747017e-09
-6.2306319e-06
3.0321287e-09
-4.0888088e-06
3.0683101e-09
-2.7754348e-06
2.5561851e-09
-1.9318022e-06
1.8944909e-09
-1.3717468e-06
1.2845919e-09
-9.6647407e-07
8.4569705e-10
-6.6180073e-07
5.5614147e-10
-4.5038259e-07
3.6460862e-10
-3.0610771e-07
2.3939069e-10
-2.0766701e-07
1.5798405e-10
-1.4063815e-07
1.0471917e-10
-9.4989061e-08
6.9786926e-11
-6.3920836e-08
4.6448877e-11
-4.2822214e-08
3.0689166e-11
-2.8526564e-08
1.9883032e-11
-1.8859379e-08
1.2571217e-11
-1.2338407e-08
7.6334189e-12
-7.9556279e-09
4.4059647e-12
-5.0251412e-09
2.3503716e-12
-3.0796841e-09
1.1035406e-12
-1.8007005e-09
4.0906126e-13
-9.7102251e-10
8.3019658e-14
-4.4272488e-10
-1.1521788e-10
-1.0339556e-08
-4.1539524e-05
-1.8660841e-08
-3.4445131e-05
-2.3072343e-08
-2.782469e-05
-2.1374906e-08
-2.1613572e-05
-1.1605207e-08
-1.5387598e-05
-2.1824524e-09
-9.8224016e-06
2.0704037e-09
-6.2348847e-06
3.421551e-09
-4.09016e-06
3.4060813e-09
-2.7754192e-06
2.8417881e-09
-1.931238e-06
2.1317549e-09
-1.3710367e-06
1.4712583e-09
-9.6581367e-07
9.8321525e-10
-6.6131261e-07
6.5374058e-10
-4.5005321e-07
4.311921e-10
-3.058851e-07
2.8246982e-10
-2.0751836e-07
1.83782e-10
-1.4053942e-07
1.1842238e-10
-9.4923762e-08
7.5569183e-11
-6.3877953e-08
4.761554e-11
-4.27943e-08
2.961374e-11
-2.8508547e-08
1.8063515e-11
-1.8847851e-08
1.0770736e-11
-1.2331108e-08
6.1993023e-12
-7.9510668e-09
3.4050946e-12
-5.0223422e-09
1.7267007e-12
-3.0780122e-09
7.8201522e-13
-1.7997439e-09
2.8218334e-13
-9.7051547e-10
5.893754e-14
-4.4249651e-10
-1.1515895e-10
-1.0454421e-08
-4.152907e-05
-1.8794026e-08
-3.4436791e-05
-2.3122142e-08
-2.7820362e-05
-2.1307659e-08
-2.1615386e-05
-1.1475274e-08
-1.539743e-05
-2.0059842e-09
-9.831871e-06
2.3168256e-09
-6.2392074e-06
3.6610342e-09
-4.0915043e-06
3.6151385e-09
-2.7753732e-06
3.0201963e-09
-1.9306432e-06
2.2816573e-09
-1.370298e-06
1.5911364e-09
-9.6512324e-07
1.0739343e-09
-6.6079534e-07
7.2098517e-10
-4.4970034e-07
4.8049209e-10
-3.0564455e-07
3.1841274e-10
-2.0735635e-07
2.0988591e-10
-1.4043085e-07
1.3731694e-10
-9.4851244e-08
8.9141921e-11
-6.3829751e-08
5.7250027e-11
-4.2762444e-08
3.6321282e-11
-2.8487602e-08
2.2613717e-11
-1.8834166e-08
1.3758342e-11
-1.2322244e-08
8.0770935e-12
-7.9453987e-09
4.5214519e-12
-5.018786e-09
2.3495083e-12
-3.0758441e-09
1.079417e-12
-1.798481e-09
3.9409261e-13
-9.6983612e-10
8.048682e-14
-4.4218715e-10
-1.1507846e-10
-1.051768e-08
-4.1518552e-05
-1.8852501e-08
-3.4428457e-05
-2.3122791e-08
-2.7816092e-05
-2.1252973e-08
-2.1617256e-05
-1.1403251e-08
-1.540728e-05
-1.9023657e-09
-9.8413719e-06
2.4706746e-09
-6.2435804e-06
3.810451e-09
-4.0928441e-06
3.7463523e-09
-2.7753091e-06
3.132591e-09
-1.9300295e-06
2.3760882e-09
-1.3695415e-06
1.6665572e-09
-9.6441378e-07
1.1307297e-09
-6.6025945e-07
7.62571e-10
-4.4933224e-07
5.1029667e-10
-3.0539223e-07
3.3935244e-10
-2.0718546e-07
2.2428203e-10
-1.4031574e-07
1.4700539e-10
-9.4774004e-08
9.5503137e-11
-6.3778219e-08
6.1337477e-11
-4.2728297e-08
3.8872677e-11
-2.8465118e-08
2.4169076e-11
-1.8819468e-08
1.4663224e-11
-1.2312728e-08
8.5843013e-12
-7.9393186e-09
4.7824725e-12
-5.0149757e-09
2.4625007e-12
-3.073524e-09
1.1258972e-12
-1.7971312e-09
4.0955771e-13
-9.6911077e-10
8.5861573e-14
-4.4185706e-10
-1.149926e-10
-1.0550219e-08
-4.1508002e-05
-1.887201e-08
-3.4420135e-05
-2.3105699e-08
-2.7811858e-05
-2.1215564e-08
-2.1619146e-05
-1.1369575e-08
-1.5417126e-05
-1.8442671e-09
-9.8508972e-06
2.566263e-09
-6.2479909e-06
3.9048806e-09
-4.0941828e-06
3.8302464e-09
-2.7752344e-06
3.2050505e-09
-1.9294044e-06
2.43734e-09
-1.3687737e-06
1.7156969e-09
-9.6369221e-07
1.1680356e-09
-6.5971174e-07
7.9018686e-10
-4.4895447e-07
5.3041301e-10
-3.0513241e-07
3.5380358e-10
-2.0700892e-07
2.3454052e-10
-1.4019645e-07
1.5418891e-10
-9.4693716e-08
1.0047868e-10
-6.3724494e-08
6.4724334e-11
-4.2692595e-08
4.1156607e-11
-2.8441546e-08
2.566869e-11
-1.8804019e-08
1.5641103e-11
-1.2302701e-08
9.1955284e-12
-7.9328996e-09
5.1563956e-12
-5.0109457e-09
2.6857495e-12
-3.0710664e-09
1.2373841e-12
-1.7956996e-09
4.5246761e-13
-9.6834071e-10
9.1251619e-14
-4.4150639e-10
-1.1490135e-10
-1.0565507e-08
-4.1497437e-05
-1.887309e-08
-3.4411827e-05
-2.3085342e-08
-2.7807646e-05
-2.1194869e-08
-2.1621036e-05
-1.1362948e-08
-1.5426958e-05
-1.8160133e-09
-9.8604442e-06
2.6247332e-09
-6.2524316e-06
3.9649754e-09
-4.0955231e-06
3.884635e-09
-2.775154e-06
3.2524513e-09
-1.9287722e-06
2.4774641e-09
-1.3679987e-06
1.7478192e-09
-9.6296263e-07
1.1923827e-09
-6.5915625e-07
8.0813038e-10
-4.4857028e-07
5.4337344e-10
-3.0486761e-07
3.6300047e-10
-2.0682861e-07
2.4093674e-10
-1.4007436e-07
1.5855742e-10
-9.4611384e-08
1.033895e-10
-6.3669306e-08
6.6626774e-11
-4.2655865e-08
4.2354621e-11
-2.8417265e-08
2.6404868e-11
-1.878809e-08
1.6061034e-11
-1.2292355e-08
9.4228517e-12
-7.9262717e-09
5.2620249e-12
-5.0067827e-09
2.7159081e-12
-3.0685268e-09
1.2447262e-12
-1.7942199e-09
4.5353865e-13
-9.6754454e-10
9.4409619e-14
-4.4114373e-10
-1.1480694e-10
-1.0571881e-08
-4.1486865e-05
-1.8866791e-08
-3.4403533e-05
-2.3067951e-08
-2.7803445e-05
-2.1188393e-08
-2.1622916e-05
-1.1376061e-08
-1.543677e-05
-1.8077017e-09
-9.8700126e-06
2.6591408e-09
-6.2568984e-06
4.0031812e-09
-4.0968672e-06
3.9203496e-09
-2.7750711e-06
3.2839867e-09
-1.9281359e-06
2.5041734e-09
-1.3672188e-06
1.7692079e-09
-9.6222772e-07
1.2086286e-09
-6.5859563e-07
8.2013245e-10
-4.4818184e-07
5.5208596e-10
-3.0459952e-07
3.6923323e-10
-2.0664581e-07
2.4532331e-10
-1.3995041e-07
1.6160201e-10
-9.4527705e-08
1.0546619e-10
-6.3613151e-08
6.8023497e-11
-4.2618452e-08
4.3279264e-11
-2.8392509e-08
2.7006652e-11
-1.8771836e-08
1.6449296e-11
-1.2281791e-08
9.6670318e-12
-7.9195012e-09
5.4122445e-12
-5.0025284e-09
2.8121887e-12
-3.0659307e-09
1.2919933e-12
-1.7927068e-09
4.7176641e-13
-9.6673028e-10
9.6577508e-14
-4.4077277e-10
-1.1471036e-10
-1.0574208e-08
-4.1476291e-05
-1.8858967e-08
-3.4395248e-05
-2.3056012e-08
-2.7799247e-05
-2.1193808e-08
-2.1624778e-05
-1.1402751e-08
-1.5446561e-05
-1.8132873e-09
-9.8796021e-06
2.6774075e-09
-6.2613891e-06
4.0270807e-09
-4.0982169e-06
3.9439573e-09
-2.774988e-06
3.3052318e-09
-1.9274973e-06
2.5221968e-09
-1.3664357e-06
1.7836025e-09
-9.6148918e-07
1.2195263e-09
-6.5803151e-07
8.2814143e-10
-4.4779051e-07
5.5786086e-10
-3.0432921e-07
3.7332979e-10
-2.0646132e-07
2.4816708e-10
-1.3982522e-07
1.6354221e-10
-9.4443108e-08
1.0675181e-10
-6.3556336e-08
6.8859894e-11
-4.2580574e-08
4.379762e-11
-2.8367431e-08
2.7321202e-11
-1.8755364e-08
1.6619854e-11
-1.2271081e-08
9.754757e-12
-7.9126347e-09
5.4460734e-12
-4.9982127e-09
2.8121561e-12
-3.0632965e-09
1.2878861e-12
-1.7911713e-09
4.6916485e-13
-9.6590383e-10
9.806958e-14
-4.4039619e-10
-1.1461229e-10
-1.0575275e-08
-4.1465716e-05
-1.8852406e-08
-3.4386971e-05
-2.3050035e-08
-2.779505e-05
-2.1208349e-08
-2.162662e-05
-1.1439751e-08
-1.545633e-05
-1.8286405e-09
-9.8892132e-06
2.6847765e-09
-6.2659025e-06
4.0413466e-09
-4.0995735e-06
3.9595286e-09
-2.7749061e-06
3.3197062e-09
-1.9268575e-06
2.5345774e-09
-1.3656506e-06
1.7935155e-09
-9.6074817e-07
1.2270704e-09
-6.5746502e-07
8.3372821e-10
-4.4739722e-07
5.6195925e-10
-3.0405741e-07
3.7630976e-10
-2.0627573e-07
2.5032102e-10
-1.3969921e-07
1.6507588e-10
-9.4357916e-08
1.0784407e-10
-6.3499093e-08
6.9619701e-11
-4.2542394e-08
4.4335879e-11
-2.8342143e-08
2.7686549e-11
-1.8738748e-08
1.6880429e-11
-1.2260275e-08
9.9288333e-12
-7.9057054e-09
5.5663363e-12
-4.993857e-09
2.8967717e-12
-3.0606377e-09
1.3336281e-12
-1.7896213e-09
4.8752191e-13
-9.6506953e-10
9.8988581e-14
-4.4001604e-10
-1.145133e-10
-1.0576499e-08
-4.1455139e-05
-1.8848272e-08
-3.4378699e-05
-2.3049541e-08
-2.7790849e-05
-2.123026e-08
-2.1628439e-05
-1.1484401e-08
-1.5466076e-05
-1.8509016e-09
-9.8988467e-06
2.6845326e-09
-6.2704379e-06
4.0490296e-09
-4.1009381e-06
3.9695372e-09
-2.7748266e-06
3.3294954e-09
-1.9262175e-06
2.5430204e-09
-1.364864e-06
1.8002292e-09
-9.6000543e-07
1.2321016e-09
-6.5689686e-07
8.3737649e-10
-4.4700254e-07
5.6455886e-10
-3.0378456e-07
3.781402e-10
-2.0608935e-07
2.515748e-10
-1.3957262e-07
1.6592024e-10
-9.42723e-08
1.0838531e-10
-6.3441544e-08
6.9959239e-11
-4.2503995e-08
4.4525899e-11
-2.8316702e-08
2.7789902e-11
-1.8722028e-08
1.6916232e-11
-1.2249399e-08
9.9336562e-12
-7.8987306e-09
5.5506023e-12
-4.9894722e-09
2.8690061e-12
-3.0579609e-09
1.3154252e-12
-1.7880607e-09
4.7955319e-13
-9.6422948e-10
9.9703804e-14
-4.3963322e-10
-1.144136e-10
-1.0578606e-08
-4.1444561e-05
-1.8846859e-08
-3.4370431e-05
-2.3053852e-08
-2.7786642e-05
-2.1258012e-08
-2.1630235e-05
-1.1534726e-08
-1.5475799e-05
-1.8783758e-09
-9.9085031e-06
2.6789302e-09
-6.2749952e-06
4.0522103e-09
-4.1023114e-06
3.9757169e-09
-2.7747501e-06
3.3361186e-09
-1.9255779e-06
2.5488525e-09
-1.3640767e-06
1.8048605e-09
-9.5926148e-07
1.2355611e-09
-6.5632753e-07
8.398808e-10
-4.4660691e-07
5.6636363e-10
-3.0351102e-07
3.794448e-10
-2.0590248e-07
2.5250721e-10
-1.3944567e-07
1.6658567e-10
-9.4186414e-08
1.0885188e-10
-6.3383798e-08
7.0286677e-11
-4.2465455e-08
4.4753528e-11
-2.8291162e-08
2.7947402e-11
-1.8705239e-08
1.7028515e-11
-1.2238477e-08
1.0012082e-11
-7.8917249e-09
5.6059535e-12
-4.9850675e-09
2.9123096e-12
-3.0552718e-09
1.3382623e-12
-1.7864928e-09
4.8872362e-13
-9.6338547e-10
1.0017092e-13
-4.3924859e-10
-1.1431343e-10
-1.0581819e-08
-4.1433979e-05
-1.8848085e-08
-3.4362165e-05
-2.3061977e-08
-2.7782428e-05
-2.1290402e-08
-2.1632007e-05
-1.1589499e-08
-1.54855e-05
-1.9097275e-09
-9.9181829e-06
2.6694085e-09
-6.2795743e-06
4.0520472e-09
-4.103694e-06
3.979174e-09
-2.7746772e-06
3.3404958e-09
-1.9249393e-06
2.5528217e-09
-1.363289e-06
1.8079849e-09
-9.5851669e-07
1.2378422e-09
-6.5575737e-07
8.4147581e-10
-4.4621058e-07
5.6746815e-10
-3.0323699e-07
3.802091e-10
-2.0571526e-07
2.5301936e-10
-1.3931846e-07
1.6692706e-10
-9.4100347e-08
1.0906264e-10
-6.3325921e-08
7.0414943e-11
-4.2426821e-08
4.481633e-11
-2.8265556e-08
2.79776e-11
-1.8688404e-08
1.7027943e-11
-1.2227524e-08
1.0002071e-11
-7.8846985e-09
5.5875857e-12
-4.9806495e-09
2.8901509e-12
-3.0525744e-09
1.3244687e-12
-1.78492e-09
4.8281934e-13
-9.6253871e-10
1.0052619e-13
-4.3886267e-10
-1.142129e-10
-1.0586198e-08
-4.1423393e-05
-1.885172e-08
-3.4353899e-05
-2.3073234e-08
-2.7778206e-05
-2.1326338e-08
-2.1633753e-05
-1.1647586e-08
-1.5495179e-05
-1.944007e-09
-9.9278865e-06
2.656807e-09
-6.2841751e-06
4.0493804e-09
-4.1050866e-06
3.9806317e-09
-2.7746084e-06
3.3432815e-09
-1.924302e-06
2.5555253e-09
-1.3625013e-06
1.8101423e-09
-9.5777134e-07
1.2394393e-09
-6.5518664e-07
8.4261907e-10
-4.4581381e-07
5.6832012e-10
-3.0296268e-07
3.8086471e-10
-2.0552786e-07
2.5354137e-10
-1.3919113e-07
1.6733258e-10
-9.4014194e-08
1.093919e-10
-6.3267981e-08
7.0664835e-11
-4.2388141e-08
4.5022759e-11
-2.8239917e-08
2.8128176e-11
-1.8671546e-08
1.7154832e-11
-1.2216555e-08
1.0093545e-11
-7.8776617e-09
5.6599509e-12
-4.9762247e-09
2.9461793e-12
-3.0498727e-09
1.3568809e-12
-1.7833447e-09
4.9614942e-13
-9.6169066e-10
1.0066117e-13
-4.3847618e-10
-1.1411224e-10
-1.0591662e-08
-4.1412801e-05
-1.8857517e-08
-3.4345633e-05
-2.3087299e-08
-2.7773976e-05
-2.1364991e-08
-2.1635476e-05
-1.1708161e-08
-1.5504835e-05
-1.9804582e-09
-9.9376142e-06
2.6420929e-09
-6.2887976e-06
4.0449542e-09
-4.1064895e-06
3.9805535e-09
-2.774544e-06
3.3447911e-09
-1.9236663e-06
2.557162e-09
-1.3617136e-06
1.8114018e-09
-9.5702562e-07
1.2402788e-09
-6.546155e-07
8.4312626e-10
-4.454167e-07
5.6862005e-10
-3.0268816e-07
3.8104397e-10
-2.0534033e-07
2.5363515e-10
-1.3906372e-07
1.6737811e-10
-9.3927977e-08
1.0939406e-10
-6.3209993e-08
7.0647956e-11
-4.2349426e-08
4.4982388e-11
-2.8214251e-08
2.8087099e-11
-1.8654669e-08
1.7102814e-11
-1.2205573e-08
1.0047498e-11
-7.8706165e-09
5.6163634e-12
-4.9717946e-09
2.9054462e-12
-3.0471677e-09
1.3327275e-12
-1.7817674e-09
4.8606156e-13
-9.6084149e-10
1.0081376e-13
-4.3808916e-10
-1.1401143e-10
-1.0598112e-08
-4.1402203e-05
-1.8865116e-08
-3.4337366e-05
-2.3103406e-08
-2.7769738e-05
-2.1405655e-08
-2.1637173e-05
-1.1770927e-08
-1.551447e-05
-2.0187031e-09
-9.9473664e-06
2.6256413e-09
-6.293442e-06
4.0391762e-09
-4.1079031e-06
3.9794192e-09
-2.7744842e-06
3.345445e-09
-1.9230323e-06
2.558128e-09
-1.3609263e-06
1.8121501e-09
-9.5627968e-07
1.2407464e-09
-6.5404409e-07
8.4337922e-10
-4.4501937e-07
5.687685e-10
-3.0241354e-07
3.8115565e-10
-2.0515275e-07
2.5372625e-10
-1.3893628e-07
1.6746115e-10
-9.3841749e-08
1.0946502e-10
-6.3151995e-08
7.0712041e-11
-4.23107e-08
4.5037841e-11
-2.8188577e-08
2.8134855e-11
-1.8637785e-08
1.7146704e-11
-1.2194585e-08
1.0085143e-11
-7.863567e-09
5.6483504e-12
-4.9673615e-09
2.9360879e-12
-3.0444609e-09
1.3497174e-12
-1.780189e-09
4.9306118e-13
-9.5999169e-10
1.0088486e-13
-4.3770185e-10
-1.1391054e-10
-1.060537e-08
-4.1391598e-05
-1.8874199e-08
-3.4329097e-05
-2.3121225e-08
-2.7765491e-05
-2.1448013e-08
-2.1638847e-05
-1.1835166e-08
-1.5524083e-05
-2.0584201e-09
-9.9571432e-06
2.6078697e-09
-6.2981082e-06
4.0322928e-09
-4.1093275e-06
3.9774949e-09
-2.7744294e-06
3.3454621e-09
-1.9224003e-06
2.5585924e-09
-1.3601394e-06
1.8124777e-09
-9.555336e-07
1.2408636e-09
-6.5347246e-07
8.4334134e-10
-4.4462188e-07
5.6866663e-10
-3.0213885e-07
3.8104699e-10
-2.0496517e-07
2.5362061e-10
-1.3880885e-07
1.6737337e-10
-9.3755524e-08
1.0938354e-10
-6.3094e-08
7.0644996e-11
-4.2271974e-08
4.4972418e-11
-2.8162901e-08
2.8082341e-11
-1.8620899e-08
1.7093909e-11
-1.2183596e-08
1.0042625e-11
-7.856516e-09
5.6106369e-12
-4.9629272e-09
2.9023682e-12
-3.0417531e-09
1.3301564e-12
-1.77861e-09
4.84943e-13
-9.5914151e-10
1.0095187e-13
-4.3731434e-10
-1.1380959e-10
-1.0613287e-08
-4.1380985e-05
-1.8884276e-08
-3.4320826e-05
-2.3140427e-08
-2.7761235e-05
-2.1491739e-08
-2.1640495e-05
-1.1900839e-08
-1.5533674e-05
-2.0994656e-09
-9.9669446e-06
2.5890644e-09
-6.3027968e-06
4.024609e-09
-4.1107631e-06
3.9749014e-09
-2.7743797e-06
3.3449519e-09
-1.9217704e-06
2.5586815e-09
-1.3593531e-06
1.8125607e-09
-9.5478751e-07
1.2408616e-09
-6.5290075e-07
8.4327707e-10
-4.4422434e-07
5.6862371e-10
-3.018642e-07
3.8105131e-10
-2.0477764e-07
2.5367797e-10
-1.3868148e-07
1.674555e-10
-9.366935e-08
1.0949052e-10
-6.303604e-08
7.0746844e-11
-4.2233272e-08
4.5080349e-11
-2.813724e-08
2.8170972e-11
-1.8604022e-08
1.7181359e-11
-1.2172612e-08
1.0111442e-11
-7.8494684e-09
5.6697914e-12
-4.958495e-09
2.9518936e-12
-3.0390465e-09
1.359451e-12
-1.7770316e-09
4.9711509e-13
-9.5829174e-10
1.0088807e-13
-4.3692702e-10
-1.137087e-10
-1.0621709e-08
-4.1370363e-05
-1.8895006e-08
-3.4312553e-05
-2.3160752e-08
-2.7756969e-05
-2.1536818e-08
-2.1642119e-05
-1.1967626e-08
-1.5543243e-05
-2.1414205e-09
-9.9767708e-06
2.5692926e-09
-6.3075075e-06
4.0162054e-09
-4.11221e-06
3.9716911e-09
-2.7743351e-06
3.3439432e-09
-1.9211427e-06
2.5583515e-09
-1.3585675e-06
1.8122713e-09
-9.5404146e-07
1.2405188e-09
-6.5232899e-07
8.4289472e-10
-4.4382675e-07
5.6826439e-10
-3.0158956e-07
3.8075274e-10
-2.0459016e-07
2.5343385e-10
-1.3855416e-07
1.6726595e-10
-9.3583214e-08
1.0933351e-10
-6.2978107e-08
7.062369e-11
-4.2194587e-08
4.4971194e-11
-2.8111589e-08
2.8085621e-11
-1.8587152e-08
1.7102242e-11
-1.2161632e-08
1.004868e-11
-7.8424231e-09
5.6167472e-12
-4.9540641e-09
2.9059386e-12
-3.0363408e-09
1.3327866e-12
-1.7754538e-09
4.8608418e-13
-9.5744219e-10
1.0087507e-13
-4.365398e-10
-1.1360783e-10
-1.0630567e-08
-4.1359732e-05
-1.8906336e-08
-3.4304277e-05
-2.3182197e-08
-2.7752693e-05
-2.1582686e-08
-2.1643719e-05
-1.2035328e-08
-1.555279e-05
-2.1841813e-09
-9.986622e-06
2.5488626e-09
-6.3122405e-06
4.007239e-09
-4.1136684e-06
3.9680542e-09
-2.7742959e-06
3.3426338e-09
-1.9205173e-06
2.5578097e-09
-1.3577827e-06
1.8118403e-09
-9.5329551e-07
1.2400961e-09
-6.5175723e-07
8.4248314e-10
-4.4342917e-07
5.6792417e-10
-3.01315e-07
3.8051059e-10
-2.0440278e-07
2.5327693e-10
-1.3842692e-07
1.6717809e-10
-9.3497145e-08
1.0929055e-10
-6.2920219e-08
7.0612448e-11
-4.2155931e-08
4.4978518e-11
-2.8085956e-08
2.8102735e-11
-1.8570292e-08
1.7127362e-11
-1.2150657e-08
1.0075108e-11
-7.8353811e-09
5.6423541e-12
-4.9496351e-09
2.9328309e-12
-3.0336361e-09
1.3481044e-12
-1.7738765e-09
4.9246123e-13
-9.565929e-10
1.0084242e-13
-4.3615269e-10
-1.1350698e-10
-1.0639791e-08
-4.1349093e-05
-1.8918217e-08
-3.4295999e-05
-2.320431e-08
-2.7748407e-05
-2.1629038e-08
-2.1645294e-05
-1.2103771e-08
-1.5562316e-05
-2.2277725e-09
-9.996498e-06
2.5277454e-09
-6.316996e-06
3.9977492e-09
-4.1151384e-06
3.9640267e-09
-2.7742622e-06
3.3410494e-09
-1.9198943e-06
2.5570615e-09
-1.3569987e-06
1.8112428e-09
-9.5254972e-07
1.2395269e-09
-6.5118551e-07
8.4193373e-10
-4.430316e-07
5.6744743e-10
-3.010405e-07
3.8012977e-10
-2.0421549e-07
2.5298048e-10
-1.3829977e-07
1.6695909e-10
-9.3411142e-08
1.0912263e-10
-6.286238e-08
7.0489298e-11
-4.2117307e-08
4.4878843e-11
-2.8060344e-08
2.8029638e-11
-1.8553445e-08
1.706359e-11
-1.2139691e-08
1.0026964e-11
-7.8283438e-09
5.6024657e-12
-4.9452088e-09
2.899235e-12
-3.0309328e-09
1.3288062e-12
-1.7722999e-09
4.8450826e-13
-9.5574399e-10
1.0081688e-13
-4.3576572e-10
-1.1340617e-10
-1.0649364e-08
-4.1338443e-05
-1.8930564e-08
-3.4287718e-05
-2.3226956e-08
-2.7744111e-05
-2.1675937e-08
-2.1646845e-05
-1.2172725e-08
-1.5571819e-05
-2.2719197e-09
-1.0006399e-05
2.5060576e-09
-6.321774e-06
3.9879289e-09
-4.1166203e-06
3.9597148e-09
-2.774234e-06
3.3392831e-09
-1.9192739e-06
2.5562377e-09
-1.3562156e-06
1.8106454e-09
-9.5180415e-07
1.2390213e-09
-6.5061388e-07
8.4149776e-10
-4.4263411e-07
5.6713334e-10
-3.0076614e-07
3.7993601e-10
-2.0402834e-07
2.5289807e-10
-1.3817274e-07
1.6694297e-10
-9.3325233e-08
1.091645e-10
-6.2804609e-08
7.0547169e-11
-4.2078731e-08
4.4959516e-11
-2.8034764e-08
2.8100341e-11
-1.8536619e-08
1.714062e-11
-1.2128738e-08
1.0089187e-11
-7.8213152e-09
5.6580729e-12
-4.9407879e-09
2.9463593e-12
-3.0282329e-09
1.3571519e-12
-1.7707253e-09
4.9633655e-13
-9.5489613e-10
1.0067503e-13
-4.3537925e-10
-1.1330549e-10
-1.0659238e-08
-4.1327784e-05
-1.8943297e-08
-3.4279434e-05
-2.325e-08
-2.7739804e-05
-2.1723107e-08
-2.1648372e-05
-1.2242329e-08
-1.55813e-05
-2.3166971e-09
-1.0016324e-05
2.4839589e-09
-6.3265746e-06
3.9777693e-09
-4.1181142e-06
3.9551164e-09
-2.7742113e-06
3.3372615e-09
-1.9186561e-06
2.555186e-09
-1.3554335e-06
1.8098429e-09
-9.5105884e-07
1.2382973e-09
-6.5004233e-07
8.4083469e-10
-4.4223668e-07
5.6656966e-10
-3.0049187e-07
3.7948652e-10
-2.0384129e-07
2.5254476e-10
-1.380458e-07
1.6667593e-10
-9.3239397e-08
1.0895463e-10
-6.274689e-08
7.0388676e-11
-4.204019e-08
4.4827847e-11
-2.8009207e-08
2.8000826e-11
-1.8519807e-08
1.7053261e-11
-1.2117795e-08
1.0021591e-11
-7.8142926e-09
5.6025518e-12
-4.9363708e-09
2.8993276e-12
-3.0255352e-09
1.3299917e-12
-1.769152e-09
4.8513259e-13
-9.5404895e-10
1.0060496e-13
-4.3499308e-10
-1.1320489e-10
-1.0669381e-08
-4.1317115e-05
-1.8956317e-08
-3.4271147e-05
-2.3273231e-08
-2.7735487e-05
-2.1770711e-08
-2.1649874e-05
-1.2312349e-08
-1.5590758e-05
-2.362039e-09
-1.0026275e-05
2.4613951e-09
-6.3313981e-06
3.9672214e-09
-4.11962e-06
3.9503426e-09
-2.7741944e-06
3.3351016e-09
-1.9180408e-06
2.5540495e-09
-1.3546525e-06
1.8090058e-09
-9.5031382e-07
1.2375798e-09
-6.494709e-07
8.4021031e-10
-4.4183934e-07
5.6607415e-10
-3.0021774e-07
3.7912889e-10
-2.0365438e-07
2.5230307e-10
-1.3791897e-07
1.6652669e-10
-9.315365e-08
1.0886844e-10
-6.2689234e-08
7.0347478e-11
-4.2001691e-08
4.481491e-11
-2.7983677e-08
2.8004761e-11
-1.8503013e-08
1.7069858e-11
-1.2106863e-08
1.0042953e-11
-7.8072764e-09
5.6251356e-12
-4.9319574e-09
2.9247319e-12
-3.0228398e-09
1.3445828e-12
-1.7675799e-09
4.9123754e-13
-9.5320242e-10
1.005259e-13
-4.3460721e-10
-1.1310436e-10
-1.0679697e-08
-4.1306435e-05
-1.8969651e-08
-3.4262857e-05
-2.3296677e-08
-2.773116e-05
-2.181849e-08
-2.1651353e-05
-1.238299e-08
-1.5600193e-05
-2.4078888e-09
-1.003625e-05
2.4384729e-09
-6.3362444e-06
3.9565422e-09
-4.1211381e-06
3.9454225e-09
-2.7741833e-06
3.3327903e-09
-1.9174282e-06
2.5528048e-09
-1.3538725e-06
1.8080837e-09
-9.4956912e-07
1.2367804e-09
-6.4889959e-07
8.395012e-10
-4.4144208e-07
5.6548237e-10
-2.9994372e-07
3.7866181e-10
-2.0346758e-07
2.5194278e-10
-1.3779225e-07
1.6626066e-10
-9.3067985e-08
1.0866672e-10
-6.2631639e-08
7.0200592e-11
-4.1963234e-08
4.4698916e-11
-2.7958175e-08
2.7920311e-11
-1.8486237e-08
1.6998502e-11
-1.2095941e-08
9.9894391e-12
-7.800267e-09
5.5817844e-12
-4.9275481e-09
2.8883983e-12
-3.0201466e-09
1.3238806e-12
-1.7660091e-09
4.8272032e-13
-9.5235655e-10
1.004638e-13
-4.3422161e-10
-1.130039e-10
-1.0690124e-08
-4.1295745e-05
-1.8983342e-08
-3.4254564e-05
-2.3320427e-08
-2.7726823e-05
-2.1866415e-08
-2.1652807e-05
-1.2453827e-08
-1.5609606e-05
-2.4541845e-09
-1.004625e-05
2.4152976e-09
-6.3411139e-06
3.9456746e-09
-4.1226685e-06
3.9403181e-09
-2.7741779e-06
3.3303949e-09
-1.9168183e-06
2.5515604e-09
-1.3530937e-06
1.8072317e-09
-9.4882481e-07
1.2361078e-09
-6.4832846e-07
8.3895438e-10
-4.4104496e-07
5.6508851e-10
-2.9966985e-07
3.7840785e-10
-2.0328094e-07
2.5181309e-10
-1.3766566e-07
1.6620988e-10
-9.2982424e-08
1.0868138e-10
-6.257412e-08
7.024019e-11
-4.1924831e-08
4.4765303e-11
-2.7932709e-08
2.7982739e-11
-1.8469485e-08
1.7069013e-11
-1.2085035e-08
1.0048469e-11
-7.7932675e-09
5.6350184e-12
-4.9231451e-09
2.9345286e-12
-3.0174573e-09
1.3516288e-12
-1.7644405e-09
4.9431558e-13
-9.5151187e-10
1.0030705e-13
-4.3383657e-10
-1.1290359e-10
-1.070066e-08
-4.1285044e-05
-1.8997329e-08
-3.4246267e-05
-2.3344325e-08
-2.7722476e-05
-2.1914365e-08
-2.1654237e-05
-1.2524997e-08
-1.5618995e-05
-2.500917e-09
-1.0056274e-05
2.3917372e-09
-6.3460066e-06
3.9345036e-09
-4.1242113e-06
3.9350397e-09
-2.7741785e-06
3.3278638e-09
-1.9162112e-06
2.5501802e-09
-1.352316e-06
1.8062437e-09
-9.480809e-07
1.2352785e-09
-6.477575e-07
8.3823222e-10
-4.4064794e-07
5.6448664e-10
-2.9939611e-07
3.7793069e-10
-2.0309441e-07
2.5143926e-10
-1.3753918e-07
1.659274e-10
-9.2896941e-08
1.0846096e-10
-6.2516658e-08
7.0074591e-11
-4.1886466e-08
4.4629805e-11
-2.7907269e-08
2.7880918e-11
-1.845275e-08
1.6981174e-11
-1.2074141e-08
9.9807782e-12
-7.7862755e-09
5.5800366e-12
-4.9187467e-09
2.8883512e-12
-3.0147708e-09
1.3249755e-12
-1.7628736e-09
4.8333307e-13
-9.5066808e-10
1.0021159e-13
-4.3345192e-10
-1.1280338e-10
-1.0711334e-08
-4.1274333e-05
-1.9011579e-08
-3.4237967e-05
-2.3368461e-08
-2.7718119e-05
-2.1962475e-08
-2.1655643e-05
-1.2596424e-08
-1.5628361e-05
-2.5478283e-09
-1.0066322e-05
2.3679867e-09
-6.3509224e-06
3.9231829e-09
-4.1257665e-06
3.9296456e-09
-2.7741849e-06
3.3252591e-09
-1.9156068e-06
2.5487605e-09
-1.3515395e-06
1.8052713e-09
-9.4733743e-07
1.2345045e-09
-6.4718673e-07
8.3759224e-10
-4.4025106e-07
5.639906e-10
-2.9912251e-07
3.7757456e-10
-2.0290803e-07
2.5119963e-10
-1.3741281e-07
1.6578007e-10
-9.281155e-08
1.0837731e-10
-6.2459262e-08
7.0035489e-11
-4.1848146e-08
4.4619114e-11
-2.7881858e-08
2.7886417e-11
-1.8436033e-08
1.6999003e-11
-1.2063258e-08
1.000293e-11
-7.77929e-09
5.6031182e-12
-4.9143522e-09
2.9135799e-12
-3.0120866e-09
1.3396638e-12
-1.7613079e-09
4.8948313e-13
-9.4982494e-10
1.0013291e-13
-4.3306757e-10
-1.1270325e-10
-1.0722127e-08
-4.1263611e-05
-1.9026044e-08
-3.4229663e-05
-2.3392583e-08
-2.7713753e-05
-2.2010558e-08
-2.1657025e-05
-1.2667977e-08
-1.5637704e-05
-2.5953562e-09
-1.0076395e-05
2.3439049e-09
-6.3558616e-06
3.9116912e-09
-4.1273343e-06
3.9240744e-09
-2.7741973e-06
3.3225179e-09
-1.9150053e-06
2.5472381e-09
-1.3507642e-06
1.8042215e-09
-9.4659443e-07
1.2336689e-09
-6.4661618e-07
8.3688078e-10
-4.398543e-07
5.6340538e-10
-2.9884904e-07
3.7711369e-10
-2.0272176e-07
2.5084359e-10
-1.3728654e-07
1.6551653e-10
-9.2726241e-08
1.081784e-10
-6.2401927e-08
6.9891343e-11
-4.180987e-08
4.4506706e-11
-2.7856476e-08
2.7805288e-11
-1.8419335e-08
1.6931309e-11
-1.2052386e-08
9.9524094e-12
-7.7723121e-09
5.5624431e-12
-4.9099622e-09
2.8799343e-12
-3.009405e-09
1.3203703e-12
-1.7597436e-09
4.8155817e-13
-9.4898254e-10
1.0006388e-13
-4.3268352e-10
-1.1260318e-10
-1.0733029e-08
-4.1252878e-05
-1.9040703e-08
-3.4221355e-05
-2.3416601e-08
-2.7709377e-05
-2.2058847e-08
-2.1658382e-05
-1.273993e-08
-1.5647023e-05
-2.6431259e-09
-1.0086492e-05
2.3195552e-09
-6.3608243e-06
3.9000336e-09
-4.1289148e-06
3.9184612e-09
-2.7742157e-06
3.3197521e-09
-1.9144066e-06
2.5457459e-09
-1.3499902e-06
1.803258e-09
-9.4585197e-07
1.2329793e-09
-6.460459e-07
8.3635287e-10
-4.394577e-07
5.6303771e-10
-2.9857573e-07
3.7688151e-10
-2.0253565e-07
2.5073165e-10
-1.3716041e-07
1.6547902e-10
-9.2641037e-08
1.082054e-10
-6.234467e-08
6.9941112e-11
-4.1771649e-08
4.4583125e-11
-2.7831133e-08
2.7876272e-11
-1.8402663e-08
1.7009688e-11
-1.2041532e-08
1.001796e-11
-7.765345e-09
5.6209382e-12
-4.905579e-09
2.929877e-12
-3.0067275e-09
1.3506549e-12
-1.7581818e-09
4.9421619e-13
-9.4814145e-10
9.9892589e-14
-4.323001e-10
-1.1250329e-10
-1.0744012e-08
-4.1242134e-05
-1.905553e-08
-3.4213044e-05
-2.3440834e-08
-2.7704991e-05
-2.2107152e-08
-2.1659716e-05
-1.2812131e-08
-1.5656318e-05
-2.6911027e-09
-1.0096613e-05
2.2949708e-09
-6.3658104e-06
3.8881753e-09
-4.130508e-06
3.9126992e-09
-2.7742403e-06
3.31679e-09
-1.9138107e-06
2.5440573e-09
-1.3492174e-06
1.8021082e-09
-9.4511004e-07
1.2320933e-09
-6.4547589e-07
8.3561575e-10
-4.3906126e-07
5.6242849e-10
-2.9830255e-07
3.7639412e-10
-2.0234965e-07
2.5034464e-10
-1.3703437e-07
1.6518153e-10
-9.2555909e-08
1.0797055e-10
-6.228747e-08
6.9762842e-11
-4.1733469e-08
4.4436962e-11
-2.7805817e-08
2.7765262e-11
-1.838601e-08
1.6914326e-11
-1.203069e-08
9.9434889e-12
-7.7583862e-09
5.5607165e-12
-4.9012011e-09
2.8791725e-12
-3.0040533e-09
1.3212675e-12
-1.7566219e-09
4.82107e-13
-9.4730138e-10
9.9780435e-14