/*--------------------------------*- C++ -*----------------------------------*\
| =========                 |                                                 |
| \\      /  F ield         | OpenFOAM: The Open Source CFD Toolbox           |
|  \\    /   O peration     | Version:  v2012                                 |
|   \\  /    A nd           | Website:  www.openfoam.com                      |
|    \\/     M anipulation  |                                                 |
\*---------------------------------------------------------------------------*/
FoamFile
{
    version     2.0;
    format      ascii;
    class       volScalarField;
    location    "450";
    object      rho;
}
// * * * * * * * * * * * * * * * * * * * * * * * * * * * * * * * * * * * * * //

dimensions      [1 -3 0 0 0 0 0];


internalField   nonuniform List<scalar> 
24000
(
22.583008
22.33493
21.423691
19.735306
16.493403
12.142287
8.7730318
6.5042373
4.995227
3.9741769
3.2852956
2.7514248
2.3154511
2.0150308
1.8124647
1.6719185
1.571482
1.4975466
1.4417882
1.3989617
1.3655688
1.3391831
1.3180932
1.3010699
1.2872131
1.2758506
1.2664716
1.2586828
1.2521772
1.2467127
22.584632
22.336821
21.427289
19.74289
16.511641
12.165321
8.7896645
6.5151147
5.0024526
3.9787536
3.2883797
2.7537824
2.3172626
2.0163841
1.813496
1.6727401
1.5721629
1.4981313
1.4423065
1.3994341
1.3660097
1.3396021
1.3184969
1.3014626
1.2875976
1.2762285
1.2668441
1.2590506
1.2525408
1.2470722
22.586299
22.338755
21.431189
19.751777
16.530724
12.185712
8.8026975
6.5227104
5.0071393
3.9814777
3.2899621
2.754892
2.3181719
2.0171147
1.8140831
1.6732296
1.5725846
1.4985051
1.4426451
1.3997457
1.3663008
1.3398779
1.3187615
1.3017191
1.2878481
1.2764744
1.2670864
1.2592898
1.2527771
1.247306
22.587972
22.340762
21.43531
19.760944
16.549285
12.20509
8.8146907
6.5298184
5.0113144
3.9836576
3.2909995
2.7554178
2.3185863
2.0174492
1.8143253
1.6733969
1.5726953
1.4985763
1.442692
1.3997806
1.3663306
1.3399061
1.3187894
1.3017472
1.2878763
1.2765027
1.2671145
1.2593177
1.2528049
1.2473335
22.589647
22.342808
21.439522
19.770195
16.567598
12.223987
8.826377
6.5366942
5.0150472
3.9854418
3.2917046
2.7556335
2.3187443
2.0176174
1.8144778
1.6735368
1.5728254
1.4986992
1.4428088
1.3998911
1.3664358
1.3400072
1.3188875
1.301843
1.2879704
1.2765954
1.2672061
1.2594083
1.2528944
1.2474222
22.591322
22.344879
21.443771
19.779433
16.585723
12.242659
8.8380355
6.5433741
5.0185253
3.9870024
3.2922151
2.7556543
2.3187179
2.0176362
1.8145088
1.6735724
1.5728613
1.498734
1.4428428
1.3999252
1.3664705
1.3400426
1.3189236
1.3018797
1.2880075
1.2766327
1.2672435
1.2594455
1.2529315
1.2474589
22.592998
22.346964
21.448031
19.788637
16.603734
12.261227
8.8497064
6.5499324
5.0218541
3.9884316
3.2926112
2.755561
2.3185868
2.0175754
1.8144825
1.6735677
1.5728693
1.4987497
1.4428638
1.3999501
1.3664982
1.3400724
1.3189548
1.3019119
1.2880404
1.276666
1.2672769
1.259479
1.2529648
1.2474919
22.594672
22.349057
21.452292
19.797804
16.621661
12.279749
8.8614036
6.5564207
5.0250962
3.9897824
3.2929371
2.7553966
2.3183893
2.0174628
1.8144169
1.6735327
1.5728533
1.4987457
1.442868
1.3999602
1.3665125
1.3400898
1.3189744
1.3019331
1.2880627
1.276689
1.2673004
1.2595026
1.2529884
1.2475154
22.596344
22.351153
21.456548
19.806935
16.639529
12.298258
8.8731331
6.5628727
5.0282885
3.9910866
3.2932202
2.7551882
2.3181511
2.0173184
1.8143277
1.6734802
1.572824
1.4987314
1.4428638
1.3999632
1.3665207
1.3401017
1.318989
1.3019496
1.2880804
1.2767076
1.2673195
1.259522
1.2530079
1.2475348
22.598014
22.353251
21.460797
19.816035
16.657353
12.316775
8.8848981
6.5693091
5.0314531
3.992363
3.2934767
2.7549517
2.3178868
2.0171537
1.8142233
1.6734163
1.572786
1.4987101
1.4428539
1.3999614
1.3665246
1.3401097
1.319
1.3019626
1.288095
1.2767231
1.2673356
1.2595385
1.2530245
1.2475513
22.599682
22.35535
21.465038
19.825107
16.675141
12.33531
8.8967016
6.5757434
5.0346044
3.9936235
3.2937162
2.7546969
2.3176056
2.0169758
1.8141093
1.6733452
1.5727425
1.4986846
1.4428407
1.3999568
1.3665262
1.3401157
1.319009
1.3019739
1.2881078
1.276737
1.2673502
1.2595535
1.2530396
1.2475664
22.601347
22.357448
21.469272
19.834153
16.6929
12.353875
8.9085442
6.5821839
5.0377507
3.994875
3.2939448
2.75443
2.3173132
2.0167893
1.8139888
1.6732695
1.5726956
1.4986564
1.4428253
1.3999505
1.3665263
1.3401203
1.319017
1.3019842
1.2881197
1.27675
1.2673639
1.2595675
1.2530538
1.2475806
22.603009
22.359547
21.473499
19.843174
16.710636
12.372472
8.9204276
6.5886367
5.0408978
3.9961224
3.2941666
2.7541549
2.3170132
2.0165969
1.8138643
1.6731908
1.5726466
1.4986267
1.4428088
1.3999433
1.3665257
1.3401244
1.3190243
1.3019939
1.2881311
1.2767625
1.2673772
1.2595812
1.2530677
1.2475945
22.604668
22.361645
21.477719
19.852172
16.728351
12.391107
8.9323523
6.5951055
5.0440496
3.9973686
3.294384
2.753874
2.3167079
2.0164005
1.8137369
1.6731102
1.5725962
1.498596
1.4427915
1.3999355
1.3665246
1.340128
1.3190314
1.3020034
1.2881423
1.2767749
1.2673902
1.2595947
1.2530814
1.2476081
22.606325
22.363743
21.481933
19.861149
16.746047
12.409782
8.9443187
6.6015927
5.0472086
3.9986156
3.2945988
2.7535892
2.3163989
2.0162013
1.8136077
1.6730284
1.572545
1.4985648
1.4427739
1.3999275
1.3665234
1.3401317
1.3190385
1.3020129
1.2881535
1.2767873
1.2674034
1.2596083
1.2530951
1.2476219
22.607978
22.365841
21.486141
19.870106
16.763728
12.428499
8.9563279
6.608101
5.0503763
3.999865
3.2948123
2.7533013
2.3160872
2.0160001
1.8134772
1.6729458
1.5724934
1.4985334
1.4427563
1.3999196
1.3665223
1.3401354
1.3190457
1.3020226
1.2881649
1.2767999
1.2674167
1.2596221
1.2531091
1.2476358
22.609629
22.367939
21.490343
19.879044
16.781391
12.447259
8.9683799
6.6146311
5.053554
4.0011178
3.2950253
2.7530114
2.3157736
2.0157975
1.813346
1.6728629
1.5724416
1.498502
1.4427388
1.3999118
1.3665214
1.3401394
1.3190532
1.3020325
1.2881765
1.2768127
1.2674303
1.2596361
1.2531233
1.24765
22.611277
22.370037
21.49454
19.887962
16.799041
12.466063
8.9804749
6.6211846
5.0567431
4.0023749
3.2952384
2.7527198
2.3154583
2.0155938
1.8132141
1.6727797
1.5723898
1.4984706
1.4427214
1.3999042
1.3665207
1.3401437
1.3190609
1.3020427
1.2881885
1.2768258
1.2674442
1.2596504
1.2531377
1.2476644
22.612922
22.372135
21.498732
19.896861
16.816674
12.484913
8.9926131
6.6277617
5.0599437
4.0036369
3.2954521
2.752427
2.3151419
2.0153894
1.813082
1.6726965
1.5723381
1.4984396
1.4427043
1.3998969
1.3665204
1.3401483
1.319069
1.3020533
1.2882008
1.2768393
1.2674584
1.2596651
1.2531526
1.2476792
22.614565
22.374233
21.50292
19.905742
16.834296
12.503807
9.0047947
6.6343639
5.0631567
4.0049043
3.2956668
2.7521333
2.3148246
2.0151843
1.8129497
1.6726134
1.5722867
1.4984088
1.4426875
1.39989
1.3665204
1.3401532
1.3190774
1.3020642
1.2882134
1.2768531
1.267473
1.2596801
1.2531678
1.2476944
22.616204
22.376331
21.507102
19.914604
16.851902
12.522747
9.0170203
6.6409909
5.0663825
4.0061773
3.2958828
2.7518388
2.3145066
2.0149789
1.8128174
1.6725304
1.5722356
1.4983784
1.4426712
1.3998835
1.3665209
1.3401586
1.3190864
1.3020756
1.2882266
1.2768674
1.267488
1.2596956
1.2531834
1.24771
22.61784
22.37843
21.511281
19.923449
16.869495
12.541733
9.0292902
6.6476435
5.0696216
4.0074561
3.2961002
2.7515437
2.314188
2.0147731
1.812685
1.6724477
1.5721847
1.4983483
1.4426552
1.3998774
1.3665218
1.3401644
1.3190956
1.3020874
1.2882401
1.2768821
1.2675035
1.2597114
1.2531994
1.2477259
22.619473
22.380529
21.515455
19.932276
16.887074
12.560765
9.0416041
6.6543223
5.072874
4.0087411
3.2963194
2.7512482
2.3138688
2.014567
1.8125528
1.6723652
1.5721343
1.4983187
1.4426397
1.3998718
1.3665231
1.3401707
1.3191054
1.3020996
1.288254
1.2768972
1.2675193
1.2597277
1.2532158
1.2477423
22.621103
22.382628
21.519623
19.941085
16.904639
12.579844
9.0539627
6.6610272
5.0761399
4.0100324
3.2965403
2.7509524
2.3135493
2.0143607
1.8124206
1.672283
1.5720842
1.4982894
1.4426246
1.3998666
1.3665249
1.3401774
1.3191156
1.3021123
1.2882684
1.2769128
1.2675356
1.2597443
1.2532327
1.2477591
22.62273
22.384728
21.523786
19.949876
16.92219
12.598968
9.0663661
6.6677587
5.07942
4.0113304
3.2967632
2.7506562
2.3132293
2.0141542
1.8122886
1.6722012
1.5720345
1.4982607
1.44261
1.3998619
1.3665271
1.3401846
1.3191263
1.3021254
1.2882833
1.2769288
1.2675524
1.2597615
1.25325
1.2477763
22.624354
22.386828
21.527944
19.95865
16.939727
12.61814
9.0788141
6.6745173
5.0827139
4.0126351
3.2969881
2.7503598
2.312909
2.0139476
1.8121567
1.6721196
1.5719852
1.4982323
1.4425958
1.3998576
1.3665298
1.3401922
1.3191374
1.302139
1.2882985
1.2769452
1.2675695
1.2597791
1.2532677
1.2477939
22.625975
22.388929
21.532097
19.967406
16.957251
12.637358
9.0913077
6.6813028
5.0860219
4.0139466
3.2972152
2.7500634
2.3125883
2.0137408
1.812025
1.6720384
1.5719363
1.4982044
1.442582
1.3998538
1.366533
1.3402002
1.3191489
1.302153
1.2883143
1.2769621
1.2675871
1.2597971
1.2532858
1.247812
22.627592
22.391031
21.536245
19.976145
16.974758
12.656621
9.1038465
6.6881157
5.0893446
4.0152651
3.2974445
2.7497668
2.3122673
2.013534
1.8118934
1.6719574
1.5718878
1.4981769
1.4425688
1.3998504
1.3665366
1.3402088
1.319161
1.3021675
1.2883305
1.2769794
1.2676052
1.2598155
1.2533044
1.2478305
22.629207
22.393134
21.540388
19.984866
16.992252
12.675931
9.1164311
6.6949566
5.0926819
4.0165904
3.2976761
2.7494702
2.311946
2.013327
1.8117621
1.6718768
1.5718398
1.4981499
1.442556
1.3998476
1.3665407
1.3402178
1.3191735
1.3021825
1.2883472
1.2769973
1.2676237
1.2598344
1.2533234
1.2478495
22.630818
22.395237
21.544527
19.993569
17.009729
12.695287
9.1290623
6.7018252
5.0960334
4.0179226
3.29791
2.7491736
2.3116244
2.0131198
1.8116308
1.6717965
1.571792
1.4981232
1.4425436
1.3998451
1.3665452
1.3402273
1.3191864
1.3021979
1.2883642
1.2770155
1.2676426
1.2598537
1.2533429
1.2478689
22.632427
22.39734
21.54866
20.002255
17.027192
12.714689
9.141739
6.7087218
5.0993999
4.0192619
3.2981464
2.7488771
2.3113026
2.0129126
1.8114998
1.6717165
1.5717447
1.4980971
1.4425317
1.3998431
1.3665502
1.3402372
1.3191998
1.3022137
1.2883818
1.2770342
1.267662
1.2598735
1.2533628
1.2478887
22.634032
22.399445
21.55279
20.010924
17.044639
12.734138
9.1544626
6.7156469
5.1027814
4.0206084
3.2983852
2.7485807
2.3109806
2.0127053
1.8113689
1.6716368
1.5716978
1.4980713
1.4425202
1.3998416
1.3665557
1.3402476
1.3192137
1.30223
1.2883998
1.2770533
1.2676819
1.2598937
1.2533831
1.2479089
22.635634
22.401549
21.556915
20.019576
17.062071
12.75363
9.1672328
6.7226003
5.1061777
4.0219622
3.2986266
2.7482846
2.3106585
2.0124979
1.8112381
1.6715574
1.5716512
1.4980459
1.4425091
1.3998405
1.3665616
1.3402584
1.319228
1.3022468
1.2884182
1.2770729
1.2677022
1.2599144
1.2534038
1.2479296
22.637232
22.403655
21.561036
20.02821
17.079486
12.773171
9.1800494
6.7295827
5.1095891
4.0233231
3.2988704
2.7479886
2.3103362
2.0122904
1.8111075
1.6714782
1.5716049
1.4980209
1.4424984
1.3998398
1.3665679
1.3402696
1.3192427
1.3022639
1.2884371
1.2770928
1.2677228
1.2599354
1.253425
1.2479506
22.638828
22.405761
21.565152
20.036827
17.096885
12.792756
9.1929135
6.7365938
5.1130159
4.0246912
3.2991168
2.747693
2.3100139
2.0120829
1.810977
1.6713993
1.571559
1.4979963
1.4424882
1.3998395
1.3665746
1.3402813
1.3192579
1.3022816
1.2884564
1.2771132
1.2677439
1.2599569
1.2534465
1.2479721
22.640421
22.407867
21.569265
20.045427
17.114268
12.812386
9.2058242
6.7436341
5.1164579
4.0260664
3.2993658
2.7473978
2.3096916
2.0118754
1.8108466
1.6713207
1.5715134
1.4979721
1.4424783
1.3998397
1.3665818
1.3402934
1.3192735
1.3022996
1.2884761
1.2771341
1.2677654
1.2599787
1.2534685
1.2479939
22.64201
22.409975
21.573373
20.054009
17.131634
12.832063
9.2187823
6.750704
5.1199152
4.0274488
3.2996173
2.7471031
2.3093693
2.0116678
1.8107163
1.6712423
1.5714682
1.4979482
1.4424689
1.3998403
1.3665894
1.340306
1.3192895
1.3023181
1.2884963
1.2771554
1.2677874
1.2600011
1.253491
1.2480162
22.643596
22.412083
21.577476
20.062574
17.148984
12.851784
9.2317879
6.7578032
5.1233883
4.0288384
3.2998715
2.7468089
2.309047
2.0114602
1.8105861
1.6711641
1.5714232
1.4979247
1.4424598
1.3998412
1.3665973
1.3403188
1.3193059
1.3023369
1.2885168
1.277177
1.2678097
1.2600237
1.2535137
1.2480389
22.645179
22.414192
21.581574
20.071122
17.166315
12.871551
9.244841
6.7649324
5.1268771
4.0302354
3.3001282
2.7465153
2.3087249
2.0112526
1.810456
1.6710861
1.5713785
1.4979015
1.442451
1.3998425
1.3666057
1.3403322
1.3193227
1.3023562
1.2885378
1.2771991
1.2678325
1.2600469
1.2535369
1.248062
22.646758
22.416302
21.585667
20.079653
17.183631
12.891364
9.2579419
6.7720917
5.1303813
4.0316397
3.3003876
2.7462223
2.3084029
2.011045
1.810326
1.6710083
1.5713341
1.4978786
1.4424426
1.3998442
1.3666144
1.3403459
1.3193399
1.3023759
1.2885591
1.2772216
1.2678557
1.2600703
1.2535605
1.2480854
22.648334
22.418413
21.589755
20.088166
17.200928
12.91122
9.2710907
6.7792813
5.1339016
4.0330513
3.3006495
2.7459301
2.3080811
2.0108373
1.8101961
1.6709308
1.57129
1.4978561
1.4424346
1.3998463
1.3666236
1.34036
1.3193576
1.302396
1.2885809
1.2772445
1.2678792
1.2600943
1.2535845
1.2481093
22.649907
22.420525
21.593838
20.096663
17.218209
12.931122
9.2842876
6.7865013
5.137438
4.0344702
3.3009141
2.7456387
2.3077595
2.0106296
1.8100663
1.6708533
1.571246
1.4978337
1.4424269
1.3998486
1.366633
1.3403744
1.3193755
1.3024163
1.288603
1.2772676
1.2679031
1.2601185
1.2536088
1.2481334
22.651476
22.422638
21.597917
20.105142
17.23547
12.951068
9.2975324
6.7937523
5.1409904
4.0358963
3.3011813
2.745348
2.3074382
2.010422
1.8099365
1.670776
1.5712023
1.4978118
1.4424195
1.3998514
1.3666429
1.3403893
1.3193939
1.3024372
1.2886255
1.2772913
1.2679274
1.2601431
1.2536335
1.248158
22.653042
22.424753
21.601991
20.113605
17.252714
12.971059
9.3108258
6.801034
5.1445588
4.0373298
3.3014512
2.7450582
2.3071172
2.0102143
1.8098068
1.6706989
1.5711589
1.49779
1.4424124
1.3998545
1.3666531
1.3404045
1.3194126
1.3024583
1.2886483
1.2773152
1.267952
1.2601681
1.2536585
1.2481829
22.654604
22.426868
21.606061
20.12205
17.26994
12.991094
9.324168
6.8083472
5.1481437
4.0387708
3.3017239
2.7447694
2.3067966
2.0100066
1.8096772
1.670622
1.5711156
1.4977686
1.4424056
1.3998579
1.3666636
1.34042
1.3194317
1.3024799
1.2886716
1.2773396
1.2679771
1.2601935
1.253684
1.2482082
22.656163
22.428984
21.610126
20.130478
17.287147
13.011173
9.3375582
6.8156917
5.151745
4.0402194
3.3019994
2.7444814
2.3064763
2.0097989
1.8095476
1.6705451
1.5710725
1.4977474
1.4423991
1.3998615
1.3666744
1.3404359
1.319451
1.3025017
1.2886951
1.2773643
1.2680024
1.2602191
1.2537097
1.2482338
22.657718
22.431102
21.614187
20.138889
17.304336
13.031297
9.3509979
6.8230681
5.1553626
4.0416755
3.3022776
2.7441944
2.3061564
2.0095913
1.8094181
1.6704683
1.5710297
1.4977265
1.4423928
1.3998656
1.3666856
1.3404521
1.3194708
1.302524
1.2887191
1.2773893
1.2680281
1.2602452
1.2537358
1.2482598
22.65927
22.433221
21.618244
20.147283
17.321504
13.051463
9.364486
6.8304764
5.1589969
4.043139
3.3025588
2.7439085
2.3058369
2.0093837
1.8092886
1.6703917
1.570987
1.4977057
1.4423869
1.3998698
1.3666971
1.3404686
1.3194909
1.3025465
1.2887433
1.2774147
1.2680542
1.2602715
1.2537622
1.248286
22.660818
22.435342
21.622297
20.15566
17.338655
13.071675
9.3780232
6.837917
5.1626479
4.04461
3.3028427
2.7436237
2.3055178
2.0091762
1.8091592
1.6703153
1.5709445
1.4976853
1.4423812
1.3998745
1.3667089
1.3404855
1.3195113
1.3025695
1.288768
1.2774404
1.2680806
1.2602983
1.253789
1.2483127
22.662363
22.437463
21.626346
20.164021
17.355785
13.091929
9.3916102
6.8453901
5.1663156
4.0460885
3.3031295
2.7433399
2.3051991
2.0089686
1.8090297
1.6702388
1.5709021
1.4976649
1.4423757
1.3998793
1.3667209
1.3405026
1.319532
1.3025926
1.2887928
1.2774664
1.2681072
1.2603253
1.2538161
1.2483395
22.663904
22.439586
21.630391
20.172365
17.372897
13.112227
9.4052459
6.8528958
5.1700001
4.0475747
3.3034193
2.7430573
2.3048809
2.0087612
1.8089003
1.6701625
1.5708599
1.4976448
1.4423705
1.3998844
1.3667333
1.34052
1.319553
1.3026161
1.288818
1.2774928
1.2681343
1.2603526
1.2538435
1.2483667
22.665442
22.44171
21.63443
20.180691
17.389988
13.132567
9.4189312
6.8604347
5.1737016
4.0490685
3.303712
2.742776
2.3045632
2.0085539
1.808771
1.6700862
1.5708178
1.4976249
1.4423655
1.3998897
1.3667459
1.3405377
1.3195743
1.3026399
1.2888435
1.2775194
1.2681616
1.2603802
1.2538711
1.2483942
22.666977
22.443835
21.638465
20.189001
17.407059
13.15295
9.4326665
6.8680069
5.1774201
4.0505701
3.3040076
2.7424958
2.3042461
2.0083467
1.8086418
1.6700102
1.5707759
1.4976052
1.4423608
1.3998954
1.3667588
1.3405558
1.3195959
1.3026641
1.2888694
1.2775464
1.2681892
1.2604082
1.2538991
1.2484221
22.668508
22.445961
21.642495
20.197294
17.424111
13.173378
9.446451
6.8756125
5.1811557
4.0520792
3.3043062
2.742217
2.3039295
2.0081396
1.8085125
1.6699341
1.5707341
1.4975857
1.4423562
1.3999012
1.3667719
1.340574
1.3196177
1.3026884
1.2888955
1.2775736
1.2682171
1.2604364
1.2539274
1.2484501
22.670036
22.448089
21.64652
20.20557
17.441141
13.193846
9.4602858
6.883252
5.1849084
4.0535959
3.3046078
2.7419394
2.3036136
2.0079327
1.8083834
1.6698581
1.5706925
1.4975663
1.4423518
1.3999073
1.3667853
1.3405925
1.3196399
1.3027131
1.2889219
1.2776011
1.2682453
1.2604649
1.2539559
1.2484785
22.67156
22.450218
21.650541
20.213831
17.458151
13.214357
9.4741704
6.8909254
5.1886784
4.0551202
3.3049124
2.7416633
2.3032984
2.0077258
1.8082543
1.6697822
1.570651
1.4975471
1.4423477
1.3999136
1.366799
1.3406113
1.3196623
1.302738
1.2889485
1.2776289
1.2682737
1.2604937
1.2539847
1.2485071
22.673081
22.452349
21.654557
20.222074
17.47514
13.234911
9.488105
6.8986332
5.1924658
4.0566524
3.30522
2.7413885
2.3029838
2.0075192
1.8081253
1.6697065
1.5706096
1.4975282
1.4423438
1.3999202
1.3668129
1.3406304
1.319685
1.3027633
1.2889755
1.277657
1.2683025
1.2605228
1.2540139
1.2485361
22.674598
22.45448
21.658568
20.2303
17.492109
13.255506
9.5020902
6.9063755
5.1962705
4.0581922
3.3055307
2.7411151
2.3026699
2.0073127
1.8079964
1.6696308
1.5705683
1.4975092
1.44234
1.3999269
1.3668269
1.3406496
1.3197079
1.3027887
1.2890027
1.2776853
1.2683314
1.260552
1.2540432
1.2485652
22.676112
22.456614
21.662576
20.23851
17.509055
13.276142
9.5161256
6.9141527
5.2000927
4.0597399
3.3058444
2.740843
2.3023568
2.0071064
1.8078676
1.6695552
1.5705272
1.4974905
1.4423364
1.3999339
1.3668413
1.3406692
1.3197311
1.3028144
1.2890301
1.2777139
1.2683607
1.2605816
1.2540728
1.2485946
22.677623
22.458749
21.666578
20.246703
17.52598
13.29682
9.5302115
6.9219649
5.2039325
4.0612952
3.3061611
2.7405725
2.3020443
2.0069004
1.8077389
1.6694797
1.5704861
1.497472
1.442333
1.399941
1.3668558
1.3406889
1.3197545
1.3028404
1.2890578
1.2777427
1.2683902
1.2606114
1.2541026
1.2486243
22.67913
22.460885
21.670577
20.25488
17.542885
13.317539
9.5443479
6.9298126
5.2077899
4.0628581
3.3064809
2.7403034
2.3017327
2.0066947
1.8076103
1.6694044
1.5704452
1.4974536
1.4423298
1.3999485
1.3668706
1.3407089
1.3197782
1.3028666
1.2890858
1.2777718
1.26842
1.2606415
1.2541327
1.2486542
22.680634
22.463022
21.674572
20.263041
17.559766
13.338299
9.558535
6.9376958
5.2116648
4.0644288
3.3068037
2.7400358
2.3014217
2.0064891
1.8074819
1.669329
1.5704044
1.4974352
1.4423267
1.3999559
1.3668855
1.340729
1.3198019
1.302893
1.2891139
1.277801
1.2684499
1.2606717
1.254163
1.2486843
22.682135
22.465161
21.678563
20.271185
17.576626
13.3591
9.5727733
6.9456149
5.2155577
4.0660073
3.3071296
2.7397697
2.3011116
2.0062839
1.8073535
1.6692538
1.5703637
1.4974171
1.4423239
1.3999637
1.3669007
1.3407495
1.319826
1.3029196
1.2891423
1.2778306
1.2684801
1.2607022
1.2541935
1.2487146
22.683633
22.4673
21.682551
20.279313
17.593465
13.379941
9.5870621
6.9535703
5.2194684
4.0675937
3.3074586
2.7395051
2.3008024
2.0060789
1.8072254
1.6691787
1.5703231
1.4973991
1.4423211
1.3999715
1.366916
1.34077
1.3198503
1.3029464
1.2891709
1.2778603
1.2685105
1.2607329
1.2542242
1.2487451
22.685127
22.469441
21.686534
20.287425
17.61028
13.400822
9.6014018
6.9615619
5.2233968
4.0691879
3.3077907
2.739242
2.300494
2.0058743
1.8070974
1.6691038
1.5702827
1.4973813
1.4423186
1.3999797
1.3669316
1.3407909
1.3198748
1.3029735
1.2891997
1.2778903
1.2685412
1.2607639
1.2542552
1.2487759
22.686618
22.471583
21.690513
20.29552
17.627071
13.421743
9.6157934
6.9695904
5.2273432
4.0707897
3.3081259
2.7389805
2.3001865
2.00567
1.8069695
1.6690289
1.5702423
1.4973634
1.4423161
1.3999878
1.3669472
1.3408117
1.3198994
1.3030007
1.2892287
1.2779203
1.2685719
1.260795
1.2542863
1.2488068
22.688105
22.473726
21.694486
20.303599
17.643841
13.442704
9.6302355
6.9776557
5.2313078
4.0723992
3.3084641
2.7387205
2.2998799
2.0054661
1.8068418
1.6689541
1.5702021
1.4973458
1.4423138
1.3999962
1.3669631
1.3408329
1.3199243
1.3030282
1.2892579
1.2779507
1.2686029
1.2608263
1.2543177
1.248838
22.689589
22.47587
21.698456
20.311662
17.660591
13.463703
9.644729
6.9857584
5.2352902
4.0740166
3.3088054
2.7384621
2.2995742
2.0052625
1.8067143
1.6688795
1.570162
1.4973283
1.4423116
1.4000047
1.3669791
1.3408542
1.3199493
1.3030557
1.2892872
1.2779812
1.2686341
1.2608578
1.2543492
1.2488692
22.69107
22.478015
21.70242
20.31971
17.677315
13.484742
9.6592745
6.9938984
5.2392907
4.0756419
3.3091499
2.7382053
2.2992695
2.0050594
1.8065871
1.6688051
1.570122
1.497311
1.4423096
1.4000135
1.3669954
1.3408757
1.3199745
1.3030836
1.2893168
1.278012
1.2686655
1.2608895
1.2543809
1.2489008
22.692548
22.480161
21.70638
20.327741
17.694015
13.50582
9.6738709
7.0020764
5.2433096
4.077275
3.3094974
2.7379501
2.2989658
2.0048566
1.80646
1.6687307
1.5700821
1.4972937
1.4423077
1.4000222
1.3670117
1.3408973
1.3199998
1.3031115
1.2893465
1.2780428
1.268697
1.2609213
1.2544128
1.2489324
22.694023
22.482308
21.710335
20.335756
17.710691
13.526936
9.6885193
7.0102924
5.2473465
4.0789159
3.309848
2.7376965
2.298663
2.0046543
1.8063333
1.6686566
1.5700425
1.4972766
1.442306
1.4000313
1.3670282
1.3409192
1.3200254
1.3031397
1.2893764
1.2780739
1.2687288
1.2609534
1.2544448
1.2489643
22.695494
22.484456
21.714286
20.343755
17.727347
13.548091
9.7032194
7.0185467
5.2514017
4.0805646
3.3102018
2.7374445
2.2983612
2.0044525
1.8062067
1.6685827
1.5700029
1.4972597
1.4423044
1.4000404
1.3670449
1.3409411
1.3200511
1.303168
1.2894065
1.2781051
1.2687607
1.2609855
1.254477
1.2489962
22.696962
22.486606
21.718233
20.351738
17.743978
13.569283
9.7179711
7.0268398
5.2554754
4.082221
3.3105587
2.7371941
2.2980604
2.0042512
1.8060805
1.6685089
1.5699636
1.4972429
1.4423031
1.4000498
1.3670618
1.3409633
1.3200771
1.3031965
1.2894368
1.2781365
1.2687928
1.261018
1.2545095
1.2490285
22.698427
22.488756
21.722176
20.359707
17.760585
13.590513
9.7327751
7.0351716
5.2595673
4.0838853
3.3109186
2.7369454
2.2977606
2.0040503
1.8059545
1.6684353
1.5699242
1.4972262
1.4423017
1.4000592
1.3670787
1.3409856
1.320103
1.3032251
1.2894672
1.278168
1.2688249
1.2610504
1.2545419
1.2490607
22.699889
22.490908
21.726115
20.367659
17.777167
13.611781
9.7476308
7.043543
5.2636778
4.0855575
3.3112817
2.7366982
2.2974619
2.00385
1.8058288
1.6683619
1.5698852
1.4972097
1.4423006
1.4000688
1.3670959
1.341008
1.3201292
1.3032539
1.2894977
1.2781997
1.2688573
1.2610831
1.2545746
1.2490932
22.701347
22.49306
21.730049
20.375596
17.793725
13.633085
9.7625383
7.0519538
5.2678067
4.0872377
3.3116479
2.7364528
2.2971642
2.0036502
1.8057035
1.6682888
1.5698463
1.4971934
1.4422997
1.4000786
1.3671132
1.3410306
1.3201555
1.3032828
1.2895284
1.2782316
1.2688898
1.2611159
1.2546075
1.2491258
22.702803
22.495214
21.733981
20.383517
17.81026
13.654427
9.7774987
7.0604044
5.2719542
4.0889257
3.3120172
2.736209
2.2968678
2.0034511
1.8055786
1.668216
1.5698076
1.4971773
1.4422989
1.4000886
1.3671307
1.3410535
1.3201821
1.303312
1.2895594
1.2782637
1.2689226
1.261149
1.2546405
1.2491587
22.704256
22.497369
21.737908
20.391423
17.826772
13.675805
9.7925106
7.0688954
5.2761205
4.0906214
3.3123896
2.7359667
2.2965724
2.0032525
1.805454
1.6681433
1.569769
1.4971612
1.4422982
1.4000986
1.3671483
1.3410763
1.3202087
1.3033412
1.2895903
1.2782958
1.2689554
1.2611821
1.2546736
1.2491915
22.705705
22.499525
21.741832
20.399313
17.843258
13.69722
9.8075749
7.0774266
5.2803052
4.092325
3.3127651
2.7357262
2.2962781
2.0030545
1.8053298
1.6680709
1.5697307
1.4971454
1.4422978
1.4001089
1.3671661
1.3410994
1.3202356
1.3033706
1.2896216
1.2783281
1.2689884
1.2612154
1.2547069
1.2492246
22.707152
22.501682
21.745752
20.407188
17.859719
13.71867
9.8226922
7.0859988
5.2845088
4.0940367
3.3131438
2.7354874
2.2959851
2.0028572
1.8052061
1.6679988
1.5696926
1.4971298
1.4422975
1.4001193
1.367184
1.3411227
1.3202625
1.3034002
1.2896529
1.2783606
1.2690215
1.2612488
1.2547403
1.2492578
22.708596
22.503839
21.749667
20.415048
17.876156
13.740156
9.8378613
7.0946119
5.2887312
4.0957563
3.3135257
2.7352503
2.2956932
2.0026606
1.8050827
1.667927
1.5696548
1.4971144
1.4422974
1.4001299
1.3672022
1.3411461
1.3202897
1.30343
1.2896844
1.2783933
1.2690549
1.2612824
1.254774
1.2492912
22.710037
22.505997
21.753578
20.422893
17.892568
13.761679
9.853083
7.1032663
5.2929724
4.0974839
3.3139106
2.7350148
2.2954024
2.0024646
1.8049598
1.6678555
1.5696171
1.4970991
1.4422974
1.4001406
1.3672204
1.3411696
1.3203169
1.3034598
1.289716
1.278426
1.2690882
1.2613161
1.2548076
1.2493246
22.711476
22.508156
21.757484
20.430723
17.908956
13.783236
9.8683579
7.1119624
5.2972325
4.0992193
3.3142987
2.734781
2.2951129
2.0022693
1.8048373
1.6677843
1.5695797
1.4970841
1.4422976
1.4001515
1.3672388
1.3411933
1.3203443
1.3034898
1.2897478
1.2784589
1.2691218
1.2613499
1.2548415
1.2493582
22.712911
22.510315
21.761385
20.438538
17.925319
13.804828
9.8836851
7.1207003
5.3015115
4.1009627
3.3146901
2.734549
2.2948246
2.0020748
1.8047153
1.6677134
1.5695426
1.4970692
1.442298
1.4001626
1.3672574
1.3412172
1.3203719
1.3035199
1.2897796
1.2784919
1.2691555
1.2613839
1.2548754
1.249392
22.714344
22.512475
21.765282
20.446337
17.941656
13.826456
9.899065
7.1294805
5.3058095
4.1027142
3.3150846
2.7343187
2.2945376
2.0018811
1.8045939
1.667643
1.5695057
1.4970547
1.4422987
1.4001739
1.3672762
1.3412413
1.3203997
1.3035503
1.2898118
1.2785252
1.2691894
1.2614181
1.2549096
1.2494259
22.715774
22.514635
21.769175
20.454121
17.957969
13.848118
9.9144985
7.1383033
5.3101267
4.1044738
3.3154822
2.7340901
2.2942518
2.001688
1.8044729
1.6675728
1.5694691
1.4970403
1.4422995
1.4001853
1.3672951
1.3412654
1.3204275
1.3035807
1.2898439
1.2785584
1.2692233
1.2614523
1.2549438
1.2494599
22.717201
22.516797
21.773063
20.461892
17.974256
13.869813
9.9299845
7.1471689
5.3144631
4.1062415
3.3158831
2.7338633
2.2939673
2.0014959
1.8043525
1.6675031
1.5694328
1.4970262
1.4423006
1.400197
1.3673142
1.3412898
1.3204556
1.3036114
1.2898763
1.2785919
1.2692575
1.2614868
1.2549783
1.2494941
22.718626
22.518958
21.776948
20.469648
17.990519
13.891544
9.9455236
7.1560775
5.3188186
4.1080171
3.3162872
2.7336383
2.2936842
2.0013045
1.8042327
1.6674338
1.5693969
1.4970123
1.4423018
1.4002089
1.3673335
1.3413143
1.3204838
1.3036421
1.2899088
1.2786256
1.2692917
1.2615213
1.2550128
1.2495284
22.720049
22.52112
21.780828
20.477389
18.006756
13.913308
9.9611167
7.1650296
5.3231933
4.1098009
3.3166945
2.7334151
2.2934025
2.0011141
1.8041135
1.667365
1.5693613
1.4969988
1.4423034
1.400221
1.3673531
1.3413391
1.3205123
1.3036731
1.2899416
1.2786594
1.2693262
1.2615561
1.2550476
1.2495629
22.721468
22.523283
21.784705
20.485116
18.022967
13.935105
9.9767628
7.1740251
5.3275874
4.1115929
3.3171051
2.7331936
2.2931221
2.0009244
1.8039948
1.6672965
1.569326
1.4969855
1.4423051
1.4002332
1.3673727
1.3413639
1.3205408
1.3037042
1.2899743
1.2786933
1.2693608
1.2615909
1.2550823
1.2495974
22.722885
22.525446
21.788578
20.492827
18.039154
13.956936
9.9924625
7.1830645
5.3320009
4.1133932
3.317519
2.732974
2.2928432
2.0007358
1.8038768
1.6672285
1.569291
1.4969725
1.4423071
1.4002458
1.3673926
1.3413891
1.3205695
1.3037355
1.2900074
1.2787274
1.2693955
1.2616259
1.2551173
1.2496322
22.724299
22.527609
21.792447
20.500524
18.055314
13.978801
10.008217
7.1921478
5.3364339
4.1152018
3.3179361
2.7327562
2.2925657
2.0005481
1.8037595
1.667161
1.5692565
1.4969598
1.4423094
1.4002585
1.3674127
1.3414143
1.3205984
1.3037669
1.2900405
1.2787617
1.2694304
1.261661
1.2551525
1.249667
22.725711
22.529772
21.796313
20.508207
18.07145
14.000697
10.024024
7.2012756
5.3408863
4.1170186
3.3183567
2.7325403
2.2922896
2.0003614
1.8036429
1.6670941
1.5692224
1.4969475
1.442312
1.4002716
1.3674331
1.3414399
1.3206277
1.3037987
1.290074
1.2787962
1.2694656
1.2616964
1.2551879
1.2497022
22.72712
22.531935
21.800175
20.515877
18.087559
14.022627
10.039886
7.2104477
5.3453584
4.1188437
3.3187805
2.7323263
2.2920151
2.0001756
1.803527
1.6670276
1.5691886
1.4969354
1.4423148
1.4002848
1.3674536
1.3414656
1.3206569
1.3038304
1.2901074
1.2788308
1.2695007
1.2617319
1.2552233
1.2497373
22.728527
22.534097
21.804033
20.523532
18.103643
14.04459
10.055803
7.2196645
5.3498502
4.1206773
3.3192077
2.7321141
2.291742
1.9999909
1.8034118
1.6669617
1.5691553
1.4969238
1.442318
1.4002984
1.3674745
1.3414916
1.3206865
1.3038625
1.2901412
1.2788656
1.2695362
1.2617676
1.2552589
1.2497728
22.729931
22.53626
21.807887
20.531173
18.119701
14.066583
10.071775
7.2289262
5.3543617
4.1225193
3.3196384
2.7319039
2.2914704
1.9998072
1.8032974
1.6668963
1.5691224
1.4969124
1.4423214
1.4003121
1.3674955
1.3415177
1.3207162
1.3038947
1.2901751
1.2789006
1.2695718
1.2618034
1.2552947
1.2498083
22.731332
22.538421
21.811736
20.538799
18.135734
14.08861
10.087801
7.2382328
5.358893
4.12437
3.3200725
2.7316956
2.2912005
1.9996246
1.8031838
1.6668316
1.56909
1.4969015
1.4423252
1.4003263
1.3675169
1.3415442
1.3207463
1.3039272
1.2902093
1.2789358
1.2696076
1.2618395
1.2553308
1.2498441
22.732731
22.540582
21.815581
20.546411
18.15174
14.110669
10.103883
7.2475845
5.3634442
4.1262291
3.32051
2.7314893
2.290932
1.9994431
1.8030709
1.6667674
1.569058
1.4968909
1.4423292
1.4003406
1.3675384
1.3415707
1.3207764
1.3039598
1.2902435
1.2789712
1.2696435
1.2618757
1.2553669
1.24988
22.734128
22.542743
21.819421
20.554009
18.167721