/*--------------------------------*- C++ -*----------------------------------*\
| =========                 |                                                 |
| \\      /  F ield         | OpenFOAM: The Open Source CFD Toolbox           |
|  \\    /   O peration     | Version:  v2012                                 |
|   \\  /    A nd           | Website:  www.openfoam.com                      |
|    \\/     M anipulation  |                                                 |
\*---------------------------------------------------------------------------*/
FoamFile
{
    version     2.0;
    format      ascii;
    class       volScalarField;
    location    "450";
    object      T;
}
// * * * * * * * * * * * * * * * * * * * * * * * * * * * * * * * * * * * * * //

dimensions      [0 0 0 1 0 0 0];


internalField   nonuniform List<scalar> 
24000
(
42.541193
42.686011
43.272053
44.669804
48.74207
58.629336
74.36363
95.838182
122.06428
151.73905
182.91872
218.56903
259.86445
298.82269
332.74225
361.29425
384.89607
404.31819
420.28873
433.41548
444.21375
453.11782
460.48189
466.59095
471.67393
475.91541
479.46488
482.44398
484.95206
487.07052
42.540403
42.684997
43.269615
44.662256
48.710902
58.553901
74.255031
95.701961
121.91043
151.58783
182.77338
218.4142
259.69847
298.66069
332.59051
361.15222
384.76255
404.19137
420.16673
433.29657
444.09651
453.00124
460.36534
466.4741
471.55669
475.79782
479.34706
482.32609
484.83427
486.95299
42.539596
42.683956
43.266922
44.653517
48.679679
58.487914
74.169692
95.604595
121.80499
151.49442
182.69943
218.33978
259.61421
298.57343
332.50444
361.06789
384.68018
404.11071
420.08757
433.21873
444.01968
452.92504
460.28942
466.3982
471.48065
475.7216
479.27071
482.24969
484.75792
486.87681
42.538787
42.682872
43.26409
44.644619
48.649516
58.425309
74.091018
95.509607
121.7111
151.41889
182.65002
218.30742
259.58135
298.5402
332.47526
361.04458
384.66336
404.09957
420.0804
433.2136
444.01498
452.92003
460.28385
466.39208
471.47409
475.71473
479.26363
482.24249
484.75068
486.86957
42.537978
42.681765
43.261201
44.635695
48.619879
58.364403
74.012928
95.419868
121.62739
151.35711
182.61774
218.29842
259.57588
298.53114
332.46329
361.02952
384.64576
404.07987
420.05892
433.19081
443.99146
452.89596
460.25932
466.36713
471.44878
475.68913
479.23783
482.21658
484.72473
486.84367
42.537168
42.680645
43.258292
44.626814
48.59064
58.304412
73.934971
95.333345
121.54959
151.30314
182.59553
218.30419
259.5899
298.54279
332.47204
361.03518
384.64912
404.08156
420.0592
433.18974
443.98915
452.89255
460.25496
466.36199
471.44305
475.68295
479.23135
482.20991
484.71797
486.83688
42.53636
42.679516
43.255382
44.617982
48.56165
58.244961
73.857082
95.248842
121.4753
151.25384
182.5794
218.3189
259.61544
298.56603
332.49124
361.04964
384.65957
404.08881
420.06381
433.19217
443.98979
452.89176
460.25303
466.35918
471.43957
475.67898
479.22704
482.20538
484.71333
486.83223
42.535553
42.678383
43.252484
44.609204
48.532903
58.185848
73.779223
95.16557
121.40312
151.20739
182.56707
218.3393
259.64844
298.59697
332.5177
361.07068
384.67594
404.10143
420.07339
433.19923
443.99483
452.89519
460.2552
466.36038
471.44003
475.67891
479.2266
482.2047
484.71253
486.83139
42.534747
42.677247
43.249591
44.600478
48.504306
58.127001
73.701367
95.083047
121.3322
151.16265
182.55712
218.36332
259.6862
298.63277
332.54866
361.09569
384.69573
404.11703
420.08557
433.20865
444.00203
452.90065
460.25932
466.36348
471.44235
475.68067
479.22796
482.20581
484.7135
486.83232
42.533942
42.676111
43.246706
44.591804
48.475898
58.068326
73.623503
95.000966
121.26202
151.11895
182.54866
218.38974
259.72709
298.6718
332.5826
361.12335
384.71784
404.13465
420.09956
433.21969
444.01075
452.90755
460.26481
466.3679
471.44597
475.6837
479.23058
482.20817
484.71572
486.83449
42.533139
42.674975
43.243827
44.583177
48.447601
58.00978
73.54561
94.919137
121.19224
151.07585
182.54116
218.41776
259.77012
298.713
332.61854
361.15276
384.74145
404.15355
420.11467
433.23174
444.02037
452.91529
460.2711
466.37307
471.45032
475.68745
479.23391
482.21123
484.71862
486.83735
42.532338
42.673838
43.240956
44.574585
48.419462
57.951364
73.46769
94.837437
121.12269
151.03309
182.53429
218.44691
259.81462
298.75569
332.65583
361.18334
384.76606
404.17332
420.13052
433.24443
444.03057
452.92356
460.27788
466.37873
471.45513
475.69164
479.23767
482.21472
484.72196
486.84063
42.531539
42.672701
43.238091
44.56603
48.391421
57.893025
73.389732
94.75578
121.05321
150.99047
182.52781
218.47686
259.86019
298.79944
332.69408
361.21472
384.79134
404.19363
420.14683
433.25751
444.04112
452.93213
460.28494
466.38463
471.46018
475.69606
479.24166
482.21843
484.72551
486.84414
42.530741
42.671565
43.235233
44.557515
48.363514
57.834768
73.311737
94.674116
120.9837
150.94789
182.5216
218.5074
259.90654
298.84396
332.733
361.24667
384.81707
404.21432
420.16344
433.27085
444.05188
452.9409
460.29217
466.3907
471.46538
475.70063
479.24579
482.22227
484.7292
486.84777
42.529946
42.670428
43.232382
44.549036
48.335705
57.77659
73.2337
94.592404
120.91411
150.90525
182.51553
218.5384
259.95351
298.88907
332.77241
361.27901
384.84312
404.23524
420.18023
433.28432
444.06274
452.94974
460.29946
466.39681
471.47061
475.70522
479.24993
482.22613
484.7329
486.85142
42.529152
42.669292
43.229536
44.540599
48.308012
57.718461
73.15562
94.51062
120.8444
150.86251
182.50954
218.56976
260.00096
298.93464
332.8122
361.31165
384.86938
404.25632
420.19713
433.29786
444.07366
452.95861
460.30677
466.40293
471.47584
475.70981
479.25407
482.22998
484.73659
486.85505
42.528361
42.668157
43.226695
44.53219
48.280422
57.660406
73.077503
94.428743
120.77453
150.81962
182.50358
218.60142
260.04881
298.98057
332.85227
361.34448
384.89577
404.27748
420.21407
433.31143
444.08456
452.96745
460.31403
466.409
471.48101
475.71433
479.25814
482.23375
484.7402
486.85861
42.527572
42.667022
43.223861
44.523811
48.252933
57.602406
72.999338
94.34676
120.70448
150.77653
182.49761
218.63335
260.097
299.0268
332.89256
361.37747
384.92227
404.29869
420.23104
433.32498
444.09544
452.97626
460.32125
466.41501
471.48613
475.7188
479.26215
482.23747
484.74376
486.86211
42.526785
42.665887
43.221031
44.515469
48.225556
57.544449
72.921134
94.264663
120.63424
150.73322
182.49159
218.66551
260.14547
299.07327
332.93303
361.41057
384.94881
404.31992
420.24798
433.33849
444.10625
452.98499
460.32838
466.42093
471.49113
475.72315
479.26604
482.24107
484.74719
486.8655
42.525999
42.664751
43.218208
44.507154
48.198265
57.486564
72.842883
94.182441
120.5638
150.68966
182.48551
218.69789
260.19421
299.11996
332.97365
361.44376
384.97539
404.34114
420.26489
433.35195
444.117
452.99364
460.33542
466.42675
471.49604
475.72739
479.26983
482.24456
484.75052
486.86877
42.525216
42.663615
43.215397
44.498883
48.171096
57.42872
72.764591
94.100092
120.49313
150.64585
182.47935
218.73045
260.24318
299.16684
333.01438
361.47699
385.00198
404.36233
420.28174
433.36532
444.12765
453.00217
460.34234
466.43244
471.50082
475.73151
479.27348
482.24791
484.75371
486.87191
42.524434
42.662479
43.212594
44.490638
48.143999
57.370926
72.686255
94.01761
120.42224
150.60179
182.47309
218.76317
260.29235
299.21387
333.05521
361.51028
385.02857
404.38349
420.29854
433.37863
444.13822
453.01063
460.34916
466.43803
471.5055
475.73552
479.27703
482.25116
484.75679
486.87494
42.523654
42.661342
43.209796
44.48242
48.117035
57.313198
72.607874
93.934993
120.35113
150.55748
182.46673
218.79604
260.3417
299.26106
333.09612
361.54359
385.05515
404.4046
420.31526
433.39184
444.14868
453.01895
460.35585
466.44348
471.51002
475.73937
479.28042
482.25425
484.75972
486.87781
42.522876
42.660205
43.207003
44.474236
48.09014
57.255507
72.529457
93.852237
120.2798
150.51291
182.46025
218.82902
260.39124
299.30838
333.13712
361.57693
385.08171
404.42567
420.33192
433.40497
444.15904
453.02717
460.36243
466.44882
471.51443
475.74311
479.28369
482.25721
484.76252
486.88056
42.5221
42.659068
43.204215
44.466081
48.06337
57.197875
72.450991
93.769342
120.20822
150.46808
182.45365
218.8621
260.44093
299.35582
333.17817
361.61027
385.10824
404.44667
420.34849
433.41799
444.16928
453.03526
460.36887
466.45401
471.51869
475.74669
479.2868
482.26002
484.76516
486.88315
42.521326
42.65793
43.201432
44.45796
48.036679
57.140301
72.372488
93.686305
120.13642
150.42298
182.44691
218.89528
260.49078
299.40338
333.21928
361.64363
385.13475
404.46763
420.36499
433.43094
444.17944
453.04326
460.37522
466.4591
471.52284
475.75016
479.2898
482.26272
484.7677
486.88563
42.520554
42.656792
43.198654
44.449872
48.010098
57.082765
72.293939
93.603125
120.06439
150.37762
182.44004
218.92853
260.54076
299.45103
333.26044
361.677
385.16122
404.48852
420.38141
433.44377
444.18947
453.05112
460.38141
466.46403
471.52684
475.75347
479.29263
482.26525
484.77006
486.88794
42.519784
42.655654
43.195881
44.44181
47.98361
57.025299
72.21535
93.519802
119.99211
150.332
182.43303
218.96184
260.59086
299.49878
333.30164
361.71036
385.18766
404.50936
420.39775
433.45652
444.1994
453.05887
460.38749
466.46884
471.53071
475.75666
479.29535
482.26766
484.7723
486.89013
42.519015
42.654518
43.193113
44.433777
47.957217
56.967882
72.136723
93.436333
119.9196
150.28613
182.42588
218.99519
260.64109
299.54661
333.34288
361.74372
385.21406
404.53012
420.41399
433.46915
444.2092
453.06649
460.39343
466.47351
471.53442
475.75969
479.2979
482.2699
484.77438
486.89216
42.518249
42.653381
43.190349
44.425776
47.930932
56.91051
72.058051
93.352719
119.84687
150.24001
182.41858
219.02858
260.69142
299.59452
333.38416
361.77708
385.24043
404.55084
420.43017
433.48171
444.21893
453.07402
460.39927
466.47808
471.53804
475.76261
479.30034
482.27204
484.77635
486.89407
42.517484
42.652243
43.18759
44.4178
47.904726
56.853207
71.979344
93.268959
119.77389
150.19364
182.41113
219.062
260.74185
299.64251
333.42546
361.81043
385.26676
404.57148
420.44626
433.49416
444.22853
453.08141
460.40497
466.48249
471.5415
475.76538
479.30263
482.27402
484.77816
486.89583
42.516721
42.651104
43.184836
44.409865
47.878643
56.795952
71.900592
93.185052
119.70068
150.14702
182.40353
219.09544
260.79238
299.69056
333.4668
361.84377
385.29307
404.59208
420.46229
433.50653
444.23803
453.0887
460.41056
466.48679
471.54484
475.76802
479.30479
482.27587
484.77985
486.89747
42.515961
42.649965
43.182087
44.401955
47.85263
56.738751
71.821805
93.100998
119.62723
150.10015
182.39578
219.12889
260.84297
299.73866
333.50815
361.87711
385.31932
404.61261
420.47822
433.5188
444.24742
453.09586
460.41602
466.49096
471.54804
475.77052
479.3068
482.27757
484.78138
486.89895
42.515202
42.648826
43.179345
44.39407
47.826742
56.681617
71.742981
93.016796
119.55356
150.05303
182.38787
219.16234
260.89363
299.78682
333.54953
361.91044
385.34556
404.6331
420.4941
433.531
444.25674
453.10295
460.4214
466.49503
471.55115
475.77293
479.30872
482.27918
484.78282
486.90034
42.514445
42.647686
43.176613
44.386219
47.800928
56.624531
71.664113
92.932445
119.47964
150.00567
182.3798
219.19577
260.94435
299.83501
333.59092
361.94375
385.37175
404.65352
420.5099
433.5431
444.26594
453.10991
460.42663
466.49897
471.55411
475.77518
479.31049
482.28064
484.78411
486.90157
42.51369
42.646545
43.173888
44.378394
47.775228
56.567507
71.585215
92.847945
119.40548
149.95807
182.37157
219.22918
260.99511
299.88323
333.63232
361.97706
385.39792
404.67389
420.52563
433.55512
444.27506
453.11677
460.43177
466.5028
471.55696
475.77733
479.31215
482.28198
484.78528
486.9027
42.512939
42.645403
43.171168
44.370599
47.749616
56.510549
71.506272
92.763295
119.3311
149.91023
182.36318
219.26256
261.0459
299.93147
333.67371
362.01034
385.42403
404.6942
420.54127
433.56704
444.28406
453.12351
460.43678
466.50649
471.55967
475.77933
479.31366
482.28317
484.7863
486.90367
42.512189
42.644261
43.168453
44.362838
47.7241
56.453639
71.427298
92.678494
119.25648
149.86217
182.35464
219.29589
261.09672
299.97973
333.71512
362.04361
385.45013
404.71447
420.55687
433.57891
444.29301
453.13019
460.44172
466.51011
471.56231
475.78126
479.31509
482.28429
484.78725
486.90456
42.511442
42.643118
43.165742
44.355101
47.69869
56.396799
71.34829
92.593541
119.18161
149.81387
182.34595
219.32918
261.14754
300.02799
333.75651
362.07686
385.47618
404.73468
420.57239
433.59068
444.30184
453.13675
460.44653
466.51359
471.56481
475.78304
479.31637
482.28526
484.78805
486.90531
42.510697
42.641975
43.163036
44.347393
47.673358
56.340025
71.269239
92.508437
119.10652
149.76534
182.33711
219.3624
261.19835
300.07625
333.7979
362.1101
385.50221
404.75485
420.58786
433.60239
444.3106
453.14323
460.45126
466.51699
471.56722
475.78473
479.31756
482.28613
484.78875
486.90596
42.509953
42.640831
43.160335
44.339714
47.648149
56.283301
71.190163
92.42318
119.03118
149.71659
182.32812
219.39555
261.24912
300.12448
333.83927
362.1433
385.52819
404.77496
420.60324
433.61401
444.31926
453.14959
460.45586
466.52026
471.56949
475.78628
479.31862
482.28686
484.78931
486.90647
42.509211
42.639686
43.157638
44.33206
47.623012
56.226652
71.111045
92.33777
118.95561
149.66761
182.31899
219.42863
261.29986
300.17271
333.88064
362.1765
385.55416
404.79504
420.6186
433.62559
444.32787
453.15591
460.46042
466.52348
471.57171
475.78778
479.31961
482.28754
484.78981
486.90693
42.508472
42.63854
43.154946
44.32444
47.597992
56.170068
71.031896
92.252207
118.8798
149.61841
182.30972
219.46162
261.35055
300.22092
333.92199
362.20967
385.58008
404.81506
420.63388
433.63707
444.33638
453.16211
460.46485
466.52657
471.57379
475.78914
479.32047
482.28808
484.79018
486.90724
42.507734
42.637394
43.152258
44.316849
47.573053
56.113542
70.952718
92.16649
118.80375
149.569
182.3003
219.49453
261.40118
300.2691
333.96332
362.24283
385.60598
404.83505
420.64911
433.6485
444.34483
453.16825
460.46921
466.52958
471.5758
475.79042
479.32124
482.28853
484.79046
486.90747
42.506998
42.636247
43.149575
44.309281
47.54822
56.05709
70.8735
92.08062
118.72745
149.51935
182.29073
219.52735
261.45175
300.31725
334.00462
362.27595
385.63183
404.85497
420.66427
433.65984
444.35318
453.17427
460.47345
466.53247
471.57768
475.79157
479.32189
482.28885
484.79061
486.90757
42.506264
42.6351
43.146897
44.301746
47.523481
56.000705
70.794259
91.994594
118.65093
149.46949
182.28102
219.56008
261.50227
300.36537
334.04592
362.30906
385.65767
404.87488
420.6794
433.67116
444.3615
453.18027
460.47766
466.53532
471.57952
475.79267
479.32249
482.28912
484.79071
486.90762
42.505532
42.633951
43.144223
44.294235
47.49883
55.944385
70.714981
91.908413
118.57416
149.41939
182.27116
219.59272
261.55271
300.41345
334.08718
362.34214
385.68347
404.89474
420.69446
433.68239
444.36971
453.18615
460.48174
466.53805
471.58124
475.79365
479.32296
482.28927
484.79068
486.90754
42.504801
42.632804
43.141556
44.286748
47.474292
55.88814
70.635671
91.822076
118.49715
149.36908
182.26115
219.62525
261.60308
300.46148
334.12841
362.3752
385.70925
404.91456
420.70949
433.69357
444.37788
453.19198
460.48577
466.54071
471.58288
475.79456
479.32335
482.28934
484.79058
486.90739
42.504073
42.631656
43.138896
44.279298
47.449832
55.831963
70.55634
91.735584
118.41991
149.31856
182.25099
219.65768
261.65336
300.50946
334.1696
362.40822
385.73498
404.93432
420.72444
433.70467
444.38595
453.1977
460.4897
466.54326
471.58441
475.79535
479.32363
482.2893
484.79036
486.90712
42.503346
42.630508
43.136246
44.271872
47.425485
55.775858
70.476969
91.648934
118.34242
149.26782
182.24069
219.69001
261.70357
300.55739
334.21078
362.44123
385.7607
404.95408
420.73938
433.71576
444.39401
453.20341
460.4936
466.54579
471.58592
475.79612
479.32389
482.28922
484.79011
486.90682
42.502621
42.629358
43.1336
44.264471
47.401218
55.719829
70.397579
91.562127
118.2647
149.21685
182.23024
219.72222
261.75368
300.60526
334.25191
362.4742
385.78638
404.97378
420.75426
433.72676
444.40198
453.20902
460.49739
466.54821
471.58731
475.79677
479.32402
482.28903
484.78974
486.9064
42.501898
42.628209
43.130959
44.257101
47.377059
55.663869
70.318159
91.475161
118.18673
149.16566
182.21963
219.75432
261.8037
300.65307
334.29299
362.50714
385.81203
404.99345
420.76909
433.73773
444.4099
453.21458
460.50113
466.55058
471.58865
475.79735
479.32409
482.28877
484.7893
486.90592
42.501177
42.627058
43.128322
44.249754
47.352991
55.607988
70.238704
91.388036
118.10853
149.11425
182.20888
219.78631
261.85361
300.70081
334.33402
362.54003
385.83763
405.01306
420.78386
433.74861
444.41773
453.22004
460.50478
466.55283
471.58987
475.79783
479.32405
482.2884
484.78876
486.90533
42.500458
42.625907
43.125689
44.24243
47.329012
55.552183
70.159237
91.300752
118.03008
149.06262
182.19797
219.81817
261.90343
300.74848
334.37501
362.5729
385.86321
405.03265
420.79861
433.75948
444.42555
453.22549
460.5084
466.55507
471.59108
475.79829
479.32399
482.28801
484.78819
486.90471
42.49974
42.624755
43.123061
44.235144
47.305144
55.49645
70.079733
91.213308
117.95139
149.01078
182.18691
219.84992
261.95312
300.79607
334.41594
362.60571
385.88874
405.05219
420.81329
433.77027
444.43328
453.23084
460.51192
466.55721
471.59218
475.79864
479.32382
482.28751
484.78752
486.90398
42.499024
42.623602
43.120437
44.227879
47.281356
55.440804
70.000208
91.125703
117.87247
148.95872
182.1757
219.88155
262.0027
300.84358
334.45682
362.63849
385.91424
405.07169
420.82794
433.78102
444.44097
453.23615
460.5154
466.5593
471.59323
475.79894
479.3236
482.28696
484.78679
486.90321
42.49831
42.622449
43.117817
44.22064
47.257676
55.385234
69.920664
91.037936
117.7933
148.90644
182.16433
219.91305
262.05217
300.89101
334.49763
362.67121
385.93968
405.09114
420.84253
433.7917
444.44857
453.24137
460.51879
466.56129
471.59419
475.79914
479.32328
482.28631
484.78596
486.90233
42.497597
42.621296
43.115202
44.21343
47.234079
55.329738
69.841086
90.950008
117.71389
148.85394
182.15282
219.94443
262.10152
300.93835
334.5384
362.70391
385.96511
405.11057
420.8571
433.80238
444.45617
453.24658
460.52217
466.56327
471.59513
475.79933
479.32295
482.28564
484.78512
486.90144
42.496887
42.620142
43.112591
44.206243
47.210584
55.274335
69.761497
90.861916
117.63425
148.80122
182.14116
219.97569
262.15076
300.98561
334.57909
362.73654
385.99048
405.12994
420.87161
433.81297
444.46369
453.25171
460.52545
466.56516
471.59598
475.79942
479.32252
482.28487
484.78417
486.90045
42.496177
42.61899
43.109984
44.199077
47.187184
55.219009
69.681882
90.773661
117.55436
148.74829
182.12935
220.00682
262.19987
301.03278
334.61972
362.76913
386.01581
405.14928
420.88608
433.82353
444.47117
453.2568
460.5287
466.56701
471.59678
475.79947
479.32204
482.28407
484.78319
486.89941
42.49547
42.617838
43.107382
44.191948
47.163872
55.163763
69.60224
90.685242
117.47423
148.69515
182.11739
220.03783
262.24886
301.07984
334.66026
362.80165
386.04109
405.16856
420.90048
433.83402
444.47857
453.2618
460.53186
466.56877
471.59749
475.79942
479.32147
482.28316
484.78211
486.89828
42.494764
42.616685
43.104786
44.184841
47.140667
55.108611
69.522591
90.596657
117.39386
148.64179
182.10528
220.06872
262.29772
301.12681
334.70075
362.83413
386.06633
405.18782
420.91488
433.84449
444.48597
453.2668
460.53501
466.57052
471.5982
475.79937
479.32089
482.28225
484.78102
486.89714
42.49406
42.615531
43.102196
44.177758
47.117544
55.05354
69.442915
90.507905
117.31325
148.58821
182.09302
220.09948
262.34645
301.17368
334.74115
362.86655
386.09152
405.20702
420.9292
433.8549
444.49328
453.27171
460.53808
466.57218
471.59881
475.79922
479.32022
482.28125
484.77984
486.89591
42.493359
42.614377
43.099614
44.170704
47.094522
54.998554
69.36322
90.418986
117.23239
148.53442
182.08061
220.13011
262.39506
301.22045
334.78148
362.89891
386.11666
405.22618
420.94349
433.86527
444.50056
453.27659
460.54112
466.57381
471.5994
475.79905
479.31952
482.28021
484.77862
486.89465
42.492659
42.613223
43.097039
44.163671
47.071589
54.943662
69.283516
90.329898
117.1513
148.48041
182.06805
220.16061
262.44352
301.26709
334.82171
362.93119
386.14174
405.24527
420.95771
433.87557
444.50777
453.2814
460.54407
466.57536
471.5999
475.79879
479.31873
482.27909
484.77733
486.89331
42.49196
42.612068
43.094468
44.156659
47.048749
54.888854
69.203786
90.240638
117.06996
148.42619
182.05534
220.19098
262.49185
301.31364
334.86187
362.96343
386.16679
405.26435
420.97192
433.88586
444.51498
453.2862
460.54703
466.57691
471.6004
475.79853
479.31795
482.27797
484.77603
486.89196
42.491263
42.610913
43.091901
44.149681
47.026012
54.834136
69.124048
90.151207
116.98838
148.37176
182.04248
220.22122
262.54003
301.36006
334.90192
362.99557
386.19176
405.28335
420.98606
433.89607
444.5221
453.29093
460.5499
466.57838
471.60081
475.79818
479.31708
482.27676
484.77465
486.89053
42.490568
42.609758
43.089338
44.142726
47.003359
54.779514
69.044297
90.061604
116.90656
148.31711
182.02947
220.25133
262.58807
301.40636
334.94189
363.02765
386.21667
405.3023
421.00015
433.90625
444.5292
453.29562
460.55274
466.57981
471.6012
475.79781
479.31618
482.27553
484.77323
486.88907
42.489874
42.608602
43.086779
44.135794
46.980805
54.724979
68.964522
89.971825
116.82449
148.26225
182.01631
220.28131
262.63596
301.45254
334.98174
363.05964
386.24151
405.32119
421.01417
433.91635
444.53621
453.30022
460.5555
466.58117
471.6015
475.79735
479.31519
482.27421
484.77174
486.88752
42.489181
42.607446
43.084224
44.12889
46.958338
54.67054
68.88475
89.88187
116.74217
148.20716
182.003
220.31115
262.6837
301.49859
335.02151
363.09157
386.2663
405.34004
421.02817
433.92645
444.54322
453.30483
460.55826
466.58252
471.60181
475.7969
479.31422
482.2729
484.77025
486.88599
42.48849
42.60629
43.081674
44.122006
46.935964
54.616196
68.804962
89.791737
116.65962
148.15187
181.98954
220.34086
262.7313
301.54451
335.06116
363.12339
386.291
405.3588
421.04209
433.93645
444.55014
453.30936
460.56094
466.58379
471.60203
475.79636
479.31315
482.2715
484.76867
486.88436
42.4878
42.605134
43.079127
44.115143
46.913688
54.561944
68.725155
89.701426
116.57681
148.09636
181.97593
220.37043
262.77874
301.59029
335.1007
363.15514
386.31564
405.37752
421.05596
433.94642
444.55703
453.31385
460.56358
466.58503
471.60223
475.79579
479.31206
482.27007
484.76707
486.88271
42.487111
42.603977
43.076585
44.10831
46.891499
54.507793
68.645357
89.610934
116.49376
148.04065
181.96217
220.39987
262.82602
301.63594
335.14012
363.18678
386.34019
405.39615
421.06975
433.95631
444.56383
453.31825
460.56614
466.58619
471.60233
475.79514
479.31088
482.26856
484.76538
486.88098
42.486424
42.602821
43.074047
44.101501
46.869406
54.453738
68.565542
89.520259
116.41047
147.98472
181.94827
220.42918
262.87315
301.68145
335.17944
363.21834
386.36469
405.41475
421.08352
433.96618
444.57063
453.32267
460.56871
466.58736
471.60246
475.79451
479.30972
482.26707
484.76371
486.87926
42.485738
42.601664
43.071513
44.094714
46.847401
54.399776
68.485717
89.429399
116.32692
147.92858
181.93421
220.45835
262.92013
301.72682
335.21863
363.2498
386.38908
405.43325
421.0972
433.97597
444.57734
453.32699
460.57119
466.58844
471.60249
475.79378
479.30847
482.26548
484.76195
486.87745
42.485054
42.600508
43.068983
44.087956
46.825486
54.345922
68.405901
89.338353
116.24314
147.87221
181.92001
220.48739
262.96694
301.77205
335.2577
363.28116
386.41341
405.45169
421.11083
433.9857
444.58402
453.33127
460.57363
466.58948
471.60249
475.79302
479.30719
482.26387
484.76016
486.87562
42.48437
42.599351
43.06646
44.081217
46.803666
54.292164
68.326072
89.247118
116.1591
147.81564
181.90567
220.5163
263.01359
301.81712
335.29664
363.3124
386.43762
405.47003
421.12436
433.99535
444.59059
453.33546
460.57599
466.59044
471.6024
475.79218
479.30582
482.26218
484.75829
486.8737
42.483688
42.598196
43.063942
44.074498
46.781936
54.238503
68.246241
89.155692
116.07481
147.75886
181.89117
220.54507
263.06008
301.86205
335.33546
363.34356
386.46178
405.48834
421.13786
434.00498
444.59717
453.33965
460.57835
466.5914
471.60233
475.79135
479.30447
482.26049
484.75643
486.87179
42.483007
42.597041
43.061432
44.067803
46.760299
54.184954
68.166419
89.064072
115.99028
147.70187
181.87653
220.5737
263.10639
301.90682
335.37414
363.3746
386.48583
405.50653
421.15126
434.01451
444.60364
453.34375
460.58061
466.59227
471.60215
475.79042
479.30302
482.25871
484.75448
486.86979
42.482327
42.595887
43.058928
44.061137
46.738749
54.131502
68.086588
88.972256
115.9055
147.64467
181.86173
220.6022
263.15255
301.95144
335.41268
363.40552
386.50978
405.52466
421.16461
434.02399
444.61007
453.34781
460.58284
466.59311
471.60195
475.78947
479.30155
482.25691
484.7525
486.86777
42.481649
42.594733
43.056428
44.05449
46.717286
54.07815
68.006764
88.880242
115.82046
147.58724
181.84679
220.63056
263.19852
301.99589
335.45108
363.43632
386.53363
405.54268
421.17785
434.03337
444.61641
453.35177
460.58497
466.59385
471.60166
475.78842
479.29999
482.25501
484.75043
486.86566
42.480971
42.59358
43.053931
44.047872
46.695918
54.024913
67.926951
88.788026
115.73517
147.5296
181.8317
220.65878
263.24434
302.04019
335.48935
363.46702
386.5574
405.56064
421.19106
434.04273
444.62273
453.35573
460.58712
466.59461
471.60138
475.7874
479.29844
482.25314
484.74838
486.86356
42.480295
42.592426
43.051439
44.041273
46.674639
53.971775
67.847133
88.695606
115.64963
147.47175
181.81645
220.68685
263.28997
302.08432
335.52746
363.49758
386.58104
405.57849
421.20415
434.05198
444.62895
453.35959
460.58915
466.59527
471.60101
475.78627
479.2968
482.25117
484.74624
486.86137
42.47962
42.591273
43.048951
44.034693
46.653449
53.918738
67.76733
88.602978
115.56383
147.41369
181.80105
220.71479
263.33543
302.12827
335.56542
363.52801
386.60458
405.59626
421.21717
434.06118
444.63512
453.3634
460.59115
466.59588
471.60059
475.78511
479.29512
482.24916
484.74406
486.85915
42.478945
42.590121
43.046467
44.028132
46.632349
53.865822
67.68754
88.510141
115.47778
147.35541
181.7855
220.74258
263.3807
302.17205
335.60321
363.55829
386.62799
405.6139
421.23008
434.07025
444.64117
453.3671
460.59304
466.5964
471.60008
475.78385
479.29335
482.24706
484.74179
486.85683
42.478272
42.588969
43.043986
44.021602
46.61133
53.813005
67.607752
88.41709
115.39147
147.29691
181.76979
220.77023
263.4258
302.21566
335.64086
363.58846
386.65131
405.63147
421.24294
434.0793
444.64721
453.3708
460.59493
466.59691
471.59957
475.7826
479.29158
482.24497
484.73952
486.85452
42.477602
42.587818
43.04151
44.015092
46.590408
53.760292
67.527986
88.323823
115.30491
147.23819
181.75393
220.79773
263.47072
302.25908
335.67834
363.61847
386.67449
405.64891
421.25567
434.08823
444.65313
453.37438
460.59671
466.59732
471.59895
475.78124
479.28971
482.24277
484.73716
486.85211
42.476932
42.586667
43.039038
44.008606
46.569574
53.707703
67.448238
88.230336
115.21809
147.17926
181.73792
220.82509
263.51545
302.30232
335.71565
363.64835
386.69755
405.66626
421.26832
434.09708
444.65899
453.3779
460.59844
466.59768
471.59829
475.77984
479.2878
482.24054
484.73475
486.84967
42.476264
42.585517
43.03657
44.002142
46.548825
53.655214
67.368497
88.136626
115.13101
147.12011
181.72175
220.8523
263.55998
302.34537
335.75278
363.67806
386.72046
405.68347
421.28084
434.10581
444.66473
453.38132
460.60006
466.59794
471.59753
475.77834
479.28579
482.23821
484.73225
486.84712
42.475596
42.584368
43.034105
43.995697
46.528167
53.60283
67.288786
88.042691
115.04368
147.06074
181.70543
220.87936
263.60433
302.38824
335.78976
363.70764
386.74328
405.7006
421.29331
434.11451
444.67044
453.38471
460.60166
466.59818
471.59676
475.77684
479.28378
482.23587
484.72975
486.84457
42.474929
42.583223
43.031645
43.989271
46.507587
53.550575
67.209099
87.948525
114.95609
147.00115
181.68894
220.90628
263.64849
302.43091
335.82655
363.73706
386.76594
405.71759
421.30563
434.12307
444.67603
453.38798
460.60315
466.59831
471.59588
475.77522
479.28165
482.23343
484.72713
486.84191
42.474264
42.582078
43.029192
43.982866
46.487104
53.498421
67.129426
87.854126
114.86823
146.94134
181.6723
220.93304
263.69245
302.47339
335.86316
363.76631
386.78846
405.73446
421.31786
434.13154
444.68154
453.39118
460.60457
466.59838
471.59494
475.77355
479.27948
482.23094
484.72447
486.83921
42.473599
42.580934
43.026744
43.976489
46.466709
53.446373
67.04979
87.759489
114.78012
146.8813
181.65549
220.95965
263.73621
302.51566
335.89957
363.79539
386.81083
405.75118
421.32995
434.13987
444.68691
453.39425
460.60587
466.59833
471.59389
475.77177
479.27719
482.22833
484.7217
486.8364
42.472935
42.579791
43.024301
43.970131
46.446392
53.394458
66.970184
87.66461
114.69175
146.82105
181.63852
220.98611
263.77977
302.55774
335.93581
363.82433
386.83307
405.76781
421.34196
434.14815
444.69224
453.39729
460.60714
466.59826
471.59281
475.76996
479.27489
482.22571
484.71891
486.83356
42.472273
42.578649
43.021866
43.963799
46.426169
53.342643
66.890601
87.569485
114.60312
146.76057
181.62139
221.01241
263.82313
302.5996
335.97185
363.85308
386.85515
405.78428
421.35382
434.15629
444.69744
453.40019
460.60828
466.59806
471.59161
475.76804
479.27247
482.22297
484.71601
486.83062
42.471611
42.577508
43.019435
43.957485
46.406027
53.290936
66.811063
87.474111
114.51422
146.69986
181.60408
221.03855
263.86628
302.64126
336.00769
363.88166
386.87708
405.80062
421.36557
434.16433
444.70255
453.40302
460.60935
466.5978
471.59035
475.76606
479.26999
482.22017
484.71305
486.82762
42.47095
42.576369
43.017009
43.951189
46.385972
53.239365
66.731563
87.378481
114.42507
146.63891
181.58661
221.06453
263.90923
302.6827
336.04333
363.91004
386.89883
405.8168
421.37717
434.17222
444.70752
453.40572
460.6103
466.59741
471.58897
475.76396
479.26739
482.21726
484.70997
486.8245
42.47029
42.57523
43.014586
43.94491
46.366009
53.187894
66.652095
87.282594
114.33565
146.57774
181.56896
221.09035
263.95197
302.72393
336.07877
363.93827
386.92045
405.83287
421.38868
434.18005
444.71243
453.40837
460.6112
466.59699
471.58756
475.76183
479.26476
482.21432
484.70687
486.82136
42.46963
42.574093
43.012167
43.938658
46.346117