/*--------------------------------*- C++ -*----------------------------------*\
| =========                 |                                                 |
| \\      /  F ield         | OpenFOAM: The Open Source CFD Toolbox           |
|  \\    /   O peration     | Version:  v2012                                 |
|   \\  /    A nd           | Website:  www.openfoam.com                      |
|    \\/     M anipulation  |                                                 |
\*---------------------------------------------------------------------------*/
FoamFile
{
    version     2.0;
    format      ascii;
    class       volVectorField;
    location    "450";
    object      U;
}
// * * * * * * * * * * * * * * * * * * * * * * * * * * * * * * * * * * * * * //

dimensions      [0 1 -1 0 0 0 0];


internalField   nonuniform List<vector> 
24000
(
(27.507432 -0.0042091027 0)
(27.67323 -0.011630515 0)
(27.950278 -0.015414432 0)
(28.23179 -0.015882042 0)
(28.733777 -0.021998146 0)
(29.821124 -0.028149024 0)
(31.499984 -0.030703863 0)
(33.525047 -0.029397835 0)
(35.61562 -0.026650922 0)
(37.446414 -0.024171548 0)
(38.636863 -0.022036944 0)
(39.018421 -0.020854586 0)
(38.095248 -0.020543059 0)
(35.740045 -0.018974325 0)
(32.396708 -0.017261417 0)
(28.578543 -0.014907083 0)
(24.696448 -0.012571282 0)
(20.991287 -0.010434574 0)
(17.592708 -0.0085128529 0)
(14.562592 -0.0067426275 0)
(11.913563 -0.005170445 0)
(9.6269675 -0.0038146258 0)
(7.6701026 -0.0026913173 0)
(6.0056677 -0.0018034838 0)
(4.5963962 -0.0011364409 0)
(3.4072633 -0.00066183037 0)
(2.4064817 -0.00034459853 0)
(1.565849 -0.00014879237 0)
(0.86073363 -4.4940938e-05 0)
(0.2698675 -1.8641249e-06 0)
(27.498844 -0.0047009332 0)
(27.665666 -0.013787542 0)
(27.945319 -0.021257445 0)
(28.232564 -0.026846225 0)
(28.741409 -0.029612812 0)
(29.828248 -0.020078299 0)
(31.502226 -0.009463267 0)
(33.521396 -0.003463029 0)
(35.606382 0.00069345759 0)
(37.434107 0.0017679204 0)
(38.624024 0.00074546753 0)
(39.007869 -0.0010500273 0)
(38.091212 -0.0033298922 0)
(35.744965 -0.004301436 0)
(32.410872 -0.0052337086 0)
(28.601896 -0.0056234126 0)
(24.728826 -0.0056047206 0)
(21.032825 -0.0052161531 0)
(17.64334 -0.0045613689 0)
(14.621343 -0.0037655066 0)
(11.978159 -0.0029461826 0)
(9.6940931 -0.0021894246 0)
(7.7360428 -0.0015446904 0)
(6.0669668 -0.0010306971 0)
(4.6503006 -0.00064470463 0)
(3.4519079 -0.00037146256 0)
(2.4408803 -0.00019044364 0)
(1.5897741 -8.0240066e-05 0)
(0.8745537 -2.316639e-05 0)
(0.27438311 -6.4959577e-07 0)
(27.491055 -0.0050085315 0)
(27.657396 -0.014835787 0)
(27.935174 -0.023186771 0)
(28.217859 -0.028875271 0)
(28.717392 -0.029471767 0)
(29.795956 -0.016634026 0)
(31.467216 -0.0040963889 0)
(33.485173 0.0029719008 0)
(35.569357 0.0079025519 0)
(37.397946 0.0092988104 0)
(38.589187 0.0085864486 0)
(38.97425 0.0064083607 0)
(38.060702 0.004151506 0)
(35.719213 0.0030679592 0)
(32.389698 0.0022449702 0)
(28.584271 0.0018824073 0)
(24.71301 0.0017249879 0)
(21.01681 0.0016313063 0)
(17.625288 0.0015034269 0)
(14.600187 0.0013154605 0)
(11.953962 0.0010849387 0)
(9.6678771 0.00084320031 0)
(7.7093655 0.00061694306 0)
(6.0414724 0.00042401987 0)
(4.6274028 0.00027199153 0)
(3.4326347 0.0001599124 0)
(2.4258439 8.3242262e-05 0)
(1.5792123 3.5565759e-05 0)
(0.86840298 1.0341703e-05 0)
(0.27235733 1.623791e-07 0)
(27.482624 -0.0052705942 0)
(27.648582 -0.015666039 0)
(27.925342 -0.024475554 0)
(28.206371 -0.029985919 0)
(28.702909 -0.029372164 0)
(29.7774 -0.014874593 0)
(31.44609 -0.001025099 0)
(33.461042 0.0072710846 0)
(35.543642 0.013175888 0)
(37.372058 0.014839318 0)
(38.563798 0.014104278 0)
(38.949438 0.011275493 0)
(38.037707 0.0082330895 0)
(35.699962 0.0059071601 0)
(32.374766 0.0038573741 0)
(28.573596 0.0023430415 0)
(24.706194 0.0012562953 0)
(21.013529 0.00053258651 0)
(17.625367 9.284029e-05 0)
(14.603427 -0.00013450414 0)
(11.959945 -0.00022585012 0)
(9.6758151 -0.00023369268 0)
(7.718317 -0.00019752564 0)
(6.0505317 -0.00014843646 0)
(4.6358231 -0.0001009331 0)
(3.4398766 -6.1670145e-05 0)
(2.4315742 -3.2969178e-05 0)
(1.5832761 -1.4344008e-05 0)
(0.87078557 -4.2544646e-06 0)
(0.27314651 -1.588265e-07 0)
(27.47397 -0.0054564891 0)
(27.639488 -0.01616738 0)
(27.915279 -0.0250943 0)
(28.194936 -0.030308317 0)
(28.688927 -0.029039089 0)
(29.759259 -0.013944873 0)
(31.424757 0.00057018362 0)
(33.436618 0.0097404831 0)
(35.517652 0.01620207 0)
(37.345609 0.018055143 0)
(38.537288 0.017389523 0)
(38.922543 0.014553105 0)
(38.010982 0.011242387 0)
(35.675208 0.0085899004 0)
(32.352916 0.0062126421 0)
(28.555058 0.0044123846 0)
(24.690795 0.0030837584 0)
(21.000818 0.0021385439 0)
(17.614801 0.0014764582 0)
(14.594442 0.0010143372 0)
(11.952056 0.00068957594 0)
(9.6688199 0.00045995491 0)
(7.7121675 0.00029863922 0)
(6.0452453 0.00018698464 0)
(4.6314257 0.00011143826 0)
(3.436376 6.2010798e-05 0)
(2.4289512 3.1025477e-05 0)
(1.5814858 1.286784e-05 0)
(0.86976351 3.6282587e-06 0)
(0.27281495 3.5802788e-08 0)
(27.465146 -0.005581027 0)
(27.630276 -0.016464915 0)
(27.90531 -0.025395671 0)
(28.183999 -0.030387714 0)
(28.675908 -0.02877992 0)
(29.742351 -0.013446404 0)
(31.404518 0.0015319919 0)
(33.413565 0.01128607 0)
(35.493106 0.018008736 0)
(37.320493 0.0200009 0)
(38.511909 0.019392842 0)
(38.896467 0.016490153 0)
(37.984488 0.013011762 0)
(35.65003 0.010047692 0)
(32.330144 0.0073454574 0)
(28.535314 0.0052303779 0)
(24.674145 0.0036278522 0)
(20.987063 0.0024625587 0)
(17.603658 0.001638563 0)
(14.585596 0.0010698751 0)
(11.945168 0.00068572145 0)
(9.6635556 0.00043054041 0)
(7.7082177 0.0002638011 0)
(6.0423384 0.00015666792 0)
(4.6293331 8.9157652e-05 0)
(3.4349124 4.7665567e-05 0)
(2.4279706 2.3094992e-05 0)
(1.5808763 9.3859608e-06 0)
(0.86944088 2.6523396e-06 0)
(0.27271724 5.3784972e-08 0)
(27.456227 -0.0056598637 0)
(27.621018 -0.016627891 0)
(27.895418 -0.025522532 0)
(28.173308 -0.03036377 0)
(28.663271 -0.02858608 0)
(29.725885 -0.013159593 0)
(31.384637 0.0021185637 0)
(33.391045 0.012239921 0)
(35.469078 0.019112102 0)
(37.295792 0.021208586 0)
(38.486771 0.020645258 0)
(38.870374 0.017728773 0)
(37.957488 0.014156772 0)
(35.623782 0.011026388 0)
(32.305847 0.0081479097 0)
(28.513771 0.005865215 0)
(24.655578 0.0041188507 0)
(20.971373 0.0028358395 0)
(17.590611 0.0019180165 0)
(14.574891 0.001275455 0)
(11.93648 0.00083363639 0)
(9.6565785 0.00053398846 0)
(7.7026829 0.00033364962 0)
(6.0380166 0.00020181205 0)
(4.6260306 0.00011674921 0)
(3.4324657 6.3380507e-05 0)
(2.4262423 3.1103612e-05 0)
(1.5797508 1.2730022e-05 0)
(0.86882132 3.6000096e-06 0)
(0.27252255 7.353474e-08 0)
(27.447256 -0.0057080697 0)
(27.61175 -0.016710547 0)
(27.8856 -0.025563634 0)
(28.162785 -0.030308489 0)
(28.65087 -0.028453422 0)
(29.709701 -0.013000712 0)
(31.365023 0.0024772722 0)
(33.36889 0.012829876 0)
(35.445423 0.019795683 0)
(37.271416 0.021965478 0)
(38.461866 0.021435674 0)
(38.844375 0.018506223 0)
(37.930298 0.014878833 0)
(35.597022 0.01163693 0)
(32.280787 0.0086403925 0)
(28.491315 0.0062438281 0)
(24.636052 0.0043988272 0)
(20.954756 0.0030356197 0)
(17.576725 0.0020560108 0)
(14.563473 0.0013680155 0)
(11.927218 0.00089405884 0)
(9.6491597 0.0005724023 0)
(7.6968226 0.00035737397 0)
(6.0334642 0.00021599081 0)
(4.6225708 0.00012488271 0)
(3.4299162 6.7700738e-05 0)
(2.4244502 3.3200283e-05 0)
(1.5785888 1.3630151e-05 0)
(0.86818397 3.9077081e-06 0)
(0.27232295 1.1481399e-07 0)
(27.438259 -0.0057369355 0)
(27.602488 -0.016747195 0)
(27.875838 -0.025564596 0)
(28.152363 -0.030249822 0)
(28.638604 -0.028368045 0)
(29.693679 -0.01292227 0)
(31.345559 0.0026932051 0)
(33.34694 0.01319379 0)
(35.421975 0.020225454 0)
(37.247212 0.02244713 0)
(38.437076 0.021946433 0)
(38.818393 0.019012669 0)
(37.902937 0.015350029 0)
(35.569876 0.012039276 0)
(32.25517 0.0089683616 0)
(28.468202 0.00650004 0)
(24.615831 0.0045924957 0)
(20.937453 0.00317789 0)
(17.562196 0.0021578488 0)
(14.55147 0.0014390945 0)
(11.917437 0.00094243161 0)
(9.6412928 0.00060440845 0)
(7.6905835 0.00037788731 0)
(6.0285998 0.00022862062 0)
(4.6188617 0.00013225215 0)
(3.427175 7.1778235e-05 0)
(2.4225186 3.5212935e-05 0)
(1.5773337 1.4391099e-05 0)
(0.8674944 4.0368705e-06 0)
(0.27210665 7.5920673e-08 0)
(27.429251 -0.0057542848 0)
(27.593237 -0.016759153 0)
(27.866117 -0.025549464 0)
(28.142005 -0.030198671 0)
(28.626423 -0.028319024 0)
(29.677757 -0.012898177 0)
(31.326186 0.0028174639 0)
(33.325115 0.013415402 0)
(35.398654 0.020497334 0)
(37.223117 0.022758179 0)
(38.412357 0.022281408 0)
(38.792416 0.019344294 0)
(37.87546 0.015659283 0)
(35.542478 0.012302761 0)
(32.229191 0.0091822393 0)
(28.444661 0.0066661529 0)
(24.595159 0.0047169502 0)
(20.91971 0.0032682091 0)
(17.547256 0.0022215334 0)
(14.539102 0.0014828496 0)
(11.907342 0.00097172992 0)
(9.633163 0.00062351779 0)
(7.6841303 0.00038997018 0)
(6.0235654 0.00023598414 0)
(4.6150214 0.00013654218 0)
(3.4243363 7.4039718e-05 0)
(2.4205179 3.6294785e-05 0)
(1.5760336 1.4872659e-05 0)
(0.86678003 4.234759e-06 0)
(0.27188256 1.1276607e-07 0)
(27.420241 -0.0057652267 0)
(27.583998 -0.016758996 0)
(27.856424 -0.025530185 0)
(28.131688 -0.030158232 0)
(28.614295 -0.028297429 0)
(29.6619 -0.012911831 0)
(31.306869 0.002881102 0)
(33.303366 0.013545286 0)
(35.37541 0.020669479 0)
(37.199085 0.022961559 0)
(38.387677 0.022504465 0)
(38.766434 0.019565448 0)
(37.847898 0.015866181 0)
(35.514902 0.012479046 0)
(32.202963 0.0093255616 0)
(28.420829 0.0067779497 0)
(24.574181 0.0048012372 0)
(20.901666 0.0033299283 0)
(17.532036 0.0022655535 0)
(14.526484 0.0015134745 0)
(11.89703 0.0009925305 0)
(9.62485 0.00063729045 0)
(7.6775263 0.00039884482 0)
(6.0184099 0.0002415118 0)
(4.6110867 0.00013982873 0)
(3.4214264 7.5944107e-05 0)
(2.4184663 3.7287966e-05 0)
(1.5747 1.5272991e-05 0)
(0.86604705 4.3291688e-06 0)
(0.27165256 1.0791119e-07 0)
(27.411234 -0.0057729106 0)
(27.574769 -0.016753886 0)
(27.846752 -0.025512461 0)
(28.121398 -0.030128951 0)
(28.602205 -0.028296353 0)
(29.646088 -0.012951526 0)
(31.287588 0.0029036889 0)
(33.281666 0.013614722 0)
(35.352214 0.020776714 0)
(37.175091 0.023094889 0)
(38.363018 0.022654953 0)
(38.740444 0.019714869 0)
(37.820273 0.01600609 0)
(35.487201 0.012597545 0)
(32.176564 0.0094213101 0)
(28.396798 0.0068522378 0)
(24.552994 0.0048568576 0)
(20.883417 0.0033702808 0)
(17.516625 0.0022939988 0)
(14.513693 0.0015330298 0)
(11.886569 0.0010056343 0)
(9.6164109 0.00064585558 0)
(7.6708184 0.00040426195 0)
(6.013171 0.00024481832 0)
(4.607087 0.00014176172 0)
(3.4184677 7.6929013e-05 0)
(2.4163799 3.7746434e-05 0)
(1.5733436 1.5490287e-05 0)
(0.86530142 4.4349945e-06 0)
(0.27141856 1.3247465e-07 0)
(27.40223 -0.0057792277 0)
(27.56555 -0.0167477 0)
(27.837094 -0.025498615 0)
(28.111126 -0.030109457 0)
(28.590139 -0.028310906 0)
(29.630307 -0.013010289 0)
(31.26833 0.0028981621 0)
(33.259999 0.01364358 0)
(35.32905 0.020840644 0)
(37.151122 0.023181703 0)
(38.338372 0.022757894 0)
(38.714445 0.019817733 0)
(37.792601 0.01610288 0)
(35.459412 0.012679406 0)
(32.150046 0.0094876326 0)
(28.37263 0.0069041708 0)
(24.531665 0.0048962802 0)
(20.865029 0.0033993579 0)
(17.501086 0.0023148617 0)
(14.500789 0.0015475631 0)
(11.87601 0.0010154944 0)
(9.6078895 0.0006523306 0)
(7.6640431 0.00040839891 0)
(6.0078784 0.00024736093 0)
(4.6030455 0.00014324271 0)
(3.4154777 7.7812396e-05 0)
(2.4142712 3.8211747e-05 0)
(1.5719725 1.5645189e-05 0)
(0.86454764 4.4145841e-06 0)
(0.27118197 1.0037494e-07 0)
(27.393231 -0.0057852369 0)
(27.556338 -0.016742398 0)
(27.827446 -0.025489275 0)
(28.100866 -0.030098227 0)
(28.578094 -0.028337241 0)
(29.614552 -0.013082918 0)
(31.249091 0.0028725844 0)
(33.238353 0.013644174 0)
(35.305906 0.02087481 0)
(37.127168 0.02323657 0)
(38.313733 0.022828302 0)
(38.688439 0.019888537 0)
(37.764894 0.016169365 0)
(35.43156 0.012734644 0)
(32.123443 0.0095315833 0)
(28.348366 0.006938053 0)
(24.510236 0.0049215615 0)
(20.846543 0.0034176696 0)
(17.485455 0.0023277306 0)
(14.487802 0.0015563739 0)
(11.865378 0.0010213376 0)
(9.5993068 0.00065610323 0)
(7.6572174 0.00041073136 0)
(6.0025455 0.00024873841 0)
(4.5989728 0.00014401602 0)
(3.4124644 7.8140541e-05 0)
(2.4121459 3.8328964e-05 0)
(1.5705905 1.5714561e-05 0)
(0.86378786 4.4822911e-06 0)
(0.27094348 1.2522681e-07 0)
(27.384234 -0.005791533 0)
(27.547131 -0.016738901 0)
(27.817805 -0.025484366 0)
(28.090615 -0.030093952 0)
(28.566064 -0.028372553 0)
(29.598817 -0.013165683 0)
(31.229865 0.0028327983 0)
(33.216723 0.013625383 0)
(35.282777 0.020888642 0)
(37.103225 0.023269637 0)
(38.289098 0.022876847 0)
(38.662425 0.019938042 0)
(37.73716 0.016216011 0)
(35.40366 0.012772909 0)
(32.09678 0.0095618829 0)
(28.324036 0.006961615 0)
(24.488738 0.0049394604 0)
(20.827991 0.0034310087 0)
(17.469762 0.0023374688 0)
(14.47476 0.0015633353 0)
(11.854698 0.0010262092 0)
(9.5906839 0.00065943054 0)
(7.6503588 0.0004129644 0)
(5.9971862 0.00025019739 0)
(4.5948797 0.00014493265 0)
(3.4094357 7.8746049e-05 0)
(2.4100096 3.8682666e-05 0)
(1.5692014 1.585809e-05 0)
(0.86302408 4.5056395e-06 0)
(0.27070372 1.1837639e-07 0)
(27.375241 -0.0057983868 0)
(27.537929 -0.016737503 0)
(27.808168 -0.025483401 0)
(28.08037 -0.030095093 0)
(28.554046 -0.028414534 0)
(29.5831 -0.0132561 0)
(31.210651 0.0027824437 0)
(33.195104 0.013592321 0)
(35.259657 0.020887645 0)
(37.079288 0.023286976 0)
(38.264466 0.022909713 0)
(38.636405 0.019972128 0)
(37.709405 0.016248083 0)
(35.375725 0.012798274 0)
(32.070074 0.0095812124 0)
(28.299658 0.0069761654 0)
(24.467192 0.004950125 0)
(20.809392 0.00343864 0)
(17.454024 0.0023427872 0)
(14.461676 0.0015669653 0)
(11.843982 0.0010286126 0)
(9.5820288 0.00066099903 0)
(7.6434731 0.00041393687 0)
(5.9918048 0.0002507796 0)
(4.5907691 0.00014526763 0)
(3.4063938 7.8869258e-05 0)
(2.4078639 3.8719355e-05 0)
(1.567806 1.5892612e-05 0)
(0.86225682 4.5511189e-06 0)
(0.27046286 1.3659259e-07 0)
(27.36625 -0.0058059091 0)
(27.528729 -0.016738144 0)
(27.798535 -0.025485812 0)
(28.07013 -0.030100586 0)
(28.54204 -0.028461469 0)
(29.567398 -0.013352099 0)
(31.191447 0.0027240915 0)
(33.173496 0.01354847 0)
(35.236546 0.020875781 0)
(37.055357 0.023292904 0)
(38.239837 0.022931757 0)
(38.610382 0.019995676 0)
(37.681635 0.016270652 0)
(35.347765 0.012815805 0)
(32.043339 0.0095946303 0)
(28.27525 0.0069866807 0)
(24.445616 0.0049583802 0)
(20.790764 0.0034450269 0)
(17.438261 0.0023476428 0)
(14.44857 0.0015705129 0)
(11.833246 0.0010311559 0)
(9.5733582 0.00066272935 0)
(7.6365749 0.00041510923 0)
(5.9864135 0.00025154627 0)
(4.5866508 0.00014574579 0)
(3.4033461 7.9225686e-05 0)
(2.4057139 3.8940636e-05 0)
(1.5664078 1.5962501e-05 0)
(0.861488 4.5121901e-06 0)
(0.27022149 1.0653474e-07 0)
(27.35726 -0.0058140777 0)
(27.519531 -0.016740573 0)
(27.788904 -0.025491066 0)
(28.059895 -0.030109712 0)
(28.530044 -0.028512423 0)
(29.551712 -0.013452468 0)
(31.172253 0.0026601466 0)
(33.151895 0.013497196 0)
(35.213441 0.020856136 0)
(37.031431 0.023290224 0)
(38.21521 0.022946101 0)
(38.584356 0.020010567 0)
(37.653854 0.016284853 0)
(35.319786 0.012825531 0)
(32.016583 0.0096010216 0)
(28.250821 0.0069910324 0)
(24.42402 0.0049613209 0)
(20.772117 0.0034469991 0)
(17.422479 0.0023488935 0)
(14.435445 0.0015712686 0)
(11.822494 0.0010315328 0)
(9.5646729 0.00066288252 0)
(7.6296642 0.00041509448 0)
(5.9810122 0.00025143951 0)
(4.5825247 0.00014560904 0)
(3.4002925 7.9020109e-05 0)
(2.4035598 3.8768431e-05 0)
(1.5650069 1.5896787e-05 0)
(0.8607177 4.5350778e-06 0)
(0.26997966 1.2648169e-07 0)
(27.348272 -0.005822816 0)
(27.510334 -0.016744458 0)
(27.779274 -0.025498534 0)
(28.049662 -0.030121677 0)
(28.518058 -0.028566372 0)
(29.53604 -0.01355642 0)
(31.153068 0.0025912889 0)
(33.130301 0.013439897 0)
(35.190341 0.020830464 0)
(37.007508 0.023280924 0)
(38.190587 0.022957024 0)
(38.558329 0.020019377 0)
(37.626064 0.016293991 0)
(35.291794 0.012831027 0)
(31.989813 0.0096042178 0)
(28.22638 0.0069932494 0)
(24.402413 0.0049630872 0)
(20.753459 0.0034485594 0)
(17.406687 0.0023502863 0)
(14.422313 0.0015724866 0)
(11.811735 0.0010325634 0)
(9.5559813 0.00066371853 0)
(7.6227484 0.00041577381 0)
(5.9756067 0.00025197855 0)
(4.5783953 0.00014601889 0)
(3.3972365 7.9377753e-05 0)
(2.401404 3.9019867e-05 0)
(1.5636048 1.6007486e-05 0)
(0.85994671 4.5516708e-06 0)
(0.26973761 1.2064762e-07 0)
(27.339283 -0.0058320066 0)
(27.501137 -0.01674946 0)
(27.769645 -0.02550783 0)
(28.039431 -0.030136081 0)
(28.50608 -0.028622742 0)
(29.520382 -0.013663142 0)
(31.133892 0.0025187045 0)
(33.108714 0.013378045 0)
(35.167246 0.020800135 0)
(36.983588 0.023266343 0)
(38.165966 0.022965352 0)
(38.532302 0.020023185 0)
(37.598267 0.016298902 0)
(35.263792 0.012832516 0)
(31.963033 0.0096037431 0)
(28.201931 0.0069921231 0)
(24.380799 0.0049618343 0)
(20.734795 0.0034474332 0)
(17.390888 0.0023493387 0)
(14.409172 0.0015717327 0)
(11.800967 0.0010319483 0)
(9.5472818 0.00066324129 0)
(7.6158253 0.00041537335 0)
(5.9701948 0.00025164795 0)
(4.5742607 0.00014575695 0)
(3.3941764 7.9112022e-05 0)
(2.3992451 3.8822741e-05 0)
(1.5622008 1.5927532e-05 0)
(0.85917462 4.5604154e-06 0)
(0.2694952 1.3516973e-07 0)
(27.330295 -0.0058415594 0)
(27.49194 -0.016755328 0)
(27.760017 -0.025518569 0)
(28.029204 -0.030152476 0)
(28.494112 -0.028681118 0)
(29.504737 -0.013772191 0)
(31.114726 0.0024431605 0)
(33.087133 0.013312694 0)
(35.144155 0.020766304 0)
(36.959671 0.023247867 0)
(38.14135 0.022968763 0)
(38.506276 0.020023852 0)
(37.570467 0.016301885 0)
(35.235783 0.012832764 0)
(31.93625 0.0096028653 0)
(28.177481 0.006991359 0)
(24.359186 0.0049615787 0)
(20.716134 0.0034476669 0)
(17.375092 0.0023499282 0)
(14.396034 0.0015724519 0)
(11.790202 0.0010327058 0)
(9.5385848 0.00066391224 0)
(7.6089042 0.00041597479 0)
(5.9647846 0.00025215738 0)
(4.5701272 0.00014616289 0)
(3.391117 7.9497784e-05 0)
(2.3970867 3.9104492e-05 0)
(1.560797 1.6046249e-05 0)
(0.85840264 4.5475901e-06 0)
(0.26925282 1.1238547e-07 0)
(27.321306 -0.0058513998 0)
(27.482743 -0.016761936 0)
(27.75039 -0.025530454 0)
(28.018978 -0.030170371 0)
(28.482152 -0.02874091 0)
(29.489106 -0.013882905 0)
(31.095568 0.0023650329 0)
(33.065557 0.013243975 0)
(35.121067 0.020729264 0)
(36.935757 0.023225707 0)
(38.116737 0.022967423 0)
(38.480253 0.020020939 0)
(37.542664 0.016301778 0)
(35.20777 0.012829744 0)
(31.909464 0.0095986503 0)
(28.153032 0.0069872258 0)
(24.337575 0.0049580044 0)
(20.697474 0.0034447923 0)
(17.359297 0.0023476628 0)
(14.382897 0.0015707085 0)
(11.779436 0.0010313296 0)
(9.5298862 0.00066285007 0)
(7.6019815 0.00041511977 0)
(5.9593728 0.00025147179 0)
(4.5659925 0.00014563161 0)
(3.3880567 7.9023431e-05 0)
(2.3949277 3.8764305e-05 0)
(1.5593928 1.5894509e-05 0)
(0.85763045 4.5398613e-06 0)
(0.26901038 1.2808541e-07 0)
(27.312316 -0.0058614804 0)
(27.473545 -0.016769217 0)
(27.740762 -0.025543284 0)
(28.008755 -0.030189452 0)
(28.4702 -0.028801899 0)
(29.473488 -0.013994978 0)
(31.07642 0.0022852486 0)
(33.043987 0.013173097 0)
(35.097984 0.020689916 0)
(36.911846 0.023201012 0)
(38.09213 0.022963082 0)
(38.454232 0.020016145 0)
(37.514859 0.016300451 0)
(35.179755 0.012825835 0)
(31.882679 0.0095940986 0)
(28.128586 0.0069832839 0)
(24.315971 0.0049550909 0)
(20.678821 0.0034429363 0)
(17.343509 0.0023466517 0)
(14.369765 0.0015702925 0)
(11.768675 0.0010312902 0)
(9.5211916 0.00066301101 0)
(7.5950619 0.00041539705 0)
(5.9539635 0.00025179074 0)
(4.5618596 0.00014593673 0)
(3.3849978 7.9345696e-05 0)
(2.3927696 3.9012741e-05 0)
(1.5579891 1.601062e-05 0)
(0.85685857 4.5590396e-06 0)
(0.26876802 1.2274113e-07 0)
(27.303325 -0.0058717441 0)
(27.464347 -0.016777071 0)
(27.731136 -0.025556794 0)
(27.998534 -0.030209303 0)
(28.458257 -0.028863597 0)
(29.457884 -0.014108267 0)
(31.057282 0.002203554 0)
(33.022423 0.013100182 0)
(35.074903 0.020648628 0)
(36.887938 0.023174177 0)
(38.067527 0.022955734 0)
(38.428216 0.020009603 0)
(37.487054 0.016297612 0)
(35.151737 0.01282021 0)
(31.855894 0.0095877728 0)
(28.104145 0.0069774671 0)
(24.294372 0.0049502323 0)
(20.660174 0.0034391416 0)
(17.327725 0.0023437927 0)
(14.356635 0.0015682033 0)
(11.757914 0.0010297614 0)
(9.5124959 0.00066192188 0)
(7.5881404 0.00041459233 0)
(5.9485519 0.00025119713 0)
(4.5577246 0.00014550553 0)
(3.381937 7.8978807e-05 0)
(2.39061 3.8758606e-05 0)
(1.5565845 1.5900239e-05 0)
(0.85608609 4.5544259e-06 0)
(0.26852548 1.3470823e-07 0)
(27.294333 -0.0058821449 0)
(27.455147 -0.016785415 0)
(27.721509 -0.025570893 0)
(27.988314 -0.030229766 0)
(28.446321 -0.028925837 0)
(29.442293 -0.014222451 0)
(31.038152 0.0021203885 0)
(33.000864 0.013025497 0)
(35.051827 0.020605908 0)
(36.864033 0.023146116 0)
(38.042931 0.022946916 0)
(38.402205 0.020002698 0)
(37.45925 0.016294856 0)
(35.123721 0.012815053 0)
(31.829115 0.0095825497 0)
(28.079713 0.0069732678 0)
(24.272786 0.0049473902 0)
(20.641541 0.0034375063 0)
(17.311955 0.0023431048 0)
(14.343518 0.0015680885 0)
(11.747165 0.0010300168 0)
(9.5038099 0.00066230987 0)
(7.581227 0.00041506091 0)
(5.9431468 0.00025166516 0)
(4.5535945 0.00014592073 0)
(3.3788798 7.9398037e-05 0)
(2.388453 3.907583e-05 0)
(1.5551814 1.6044567e-05 0)
(0.85531447 4.5509362e-06 0)
(0.26828319 1.1300275e-07 0)
(27.28534 -0.0058926263 0)
(27.445946 -0.016794182 0)
(27.711881 -0.025585511 0)
(27.978096 -0.030250715 0)
(28.434394 -0.02898866 0)
(29.426715 -0.014337578 0)
(31.019032 0.0020362873 0)
(32.97931 0.012949585 0)
(35.028754 0.020561812 0)
(36.840132 0.02311681 0)
(38.018341 0.022936037 0)
(38.3762 0.01999444 0)
(37.43145 0.016290312 0)
(35.095706 0.012807654 0)
(31.802339 0.0095748115 0)
(28.055289 0.0069662929 0)
(24.251209 0.0049415769 0)
(20.622917 0.003432922 0)
(17.296193 0.0023395712 0)
(14.330408 0.0015654248 0)
(11.73642 0.0010279796 0)
(9.4951269 0.00066077983 0)
(7.5743156 0.00041387264 0)
(5.937743 0.00025074125 0)
(4.5494654 0.00014521979 0)
(3.3758233 7.8802637e-05 0)
(2.3862964 3.8656583e-05 0)
(1.5537787 1.5850673e-05 0)
(0.85454307 4.5280111e-06 0)
(0.26804099 1.268149e-07 0)
(27.276345 -0.0059031606 0)
(27.436744 -0.01680333 0)
(27.702254 -0.025600572 0)
(27.967881 -0.030271989 0)
(28.422476 -0.029051672 0)
(29.411151 -0.014453485 0)
(30.999922 0.001950754 0)
(32.957761 0.012872118 0)
(35.005685 0.020516397 0)
(36.816234 0.02308661 0)
(37.993758 0.022924303 0)
(38.350202 0.019985885 0)
(37.403652 0.016285593 0)
(35.067694 0.012800341 0)
(31.77557 0.0095676019 0)
(28.030874 0.0069602142 0)
(24.229644 0.0049369956 0)
(20.604306 0.0034298073 0)
(17.280443 0.0023376466 0)
(14.317308 0.0015643734 0)
(11.725685 0.0010275187 0)
(9.486452 0.00066067781 0)
(7.5674107 0.00041400163 0)
(5.9323444 0.00025099084 0)
(4.5453401 0.00014550475 0)
(3.3727696 7.9136012e-05 0)
(2.3841419 3.8925102e-05 0)
(1.5523773 1.5980581e-05 0)
(0.85377234 4.552224e-06 0)
(0.26779898 1.2208001e-07 0)
(27.267348 -0.0059137473 0)
(27.42754 -0.016812847 0)
(27.692626 -0.025616045 0)
(27.957666 -0.030293512 0)
(28.410565 -0.029114998 0)
(29.3956 -0.014570189 0)
(30.98082 0.0018642849 0)
(32.936218 0.012793678 0)
(34.982619 0.020470084 0)
(36.79234 0.023055728 0)
(37.969183 0.022911718 0)
(38.324212 0.019976949 0)
(37.375858 0.016280067 0)
(35.039685 0.012792026 0)
(31.748806 0.009559277 0)
(28.006468 0.0069527808 0)
(24.208089 0.0049308352 0)
(20.585705 0.0034249917 0)
(17.264702 0.0023339978 0)
(14.304215 0.0015616829 0)
(11.714953 0.0010255324 0)
(9.4777787 0.00065924086 0)
(7.5605063 0.00041292935 0)
(5.9269455 0.00025018972 0)
(4.5412143 0.00014491508 0)
(3.3697154 7.8644158e-05 0)
(2.3819867 3.8584276e-05 0)
(1.5509754 1.5824792e-05 0)
(0.85300137 4.532916e-06 0)
(0.2675569 1.3267579e-07 0)
(27.258349 -0.0059244261 0)
(27.418335 -0.016822734 0)
(27.682998 -0.02563187 0)
(27.947454 -0.030315254 0)
(28.398663 -0.029178433 0)
(29.380063 -0.014687453 0)
(30.961728 0.0017770975 0)
(32.914679 0.012714596 0)
(34.959556 0.020422864 0)
(36.76845 0.023024301 0)
(37.944615 0.022898963 0)
(38.298231 0.019968611 0)
(37.34807 0.01627548 0)
(35.011681 0.012785148 0)
(31.72205 0.0095529386 0)
(27.982074 0.0069477227 0)
(24.186549 0.0049273375 0)
(20.567121 0.0034228934 0)
(17.248977 0.0023330134 0)
(14.291137 0.001561417 0)
(11.704235 0.0010257433 0)
(9.4691172 0.00065966103 0)
(7.5536114 0.00041347476 0)
(5.9215542 0.00025075709 0)
(4.5370943 0.00014543264 0)
(3.3666653 7.9158499e-05 0)
(2.3798345 3.8975081e-05 0)
(1.5495754 1.6012182e-05 0)
(0.85223139 4.5476581e-06 0)
(0.26731513 1.1445306e-07 0)
(27.249348 -0.0059352349 0)
(27.409128 -0.016832952 0)
(27.67337 -0.025647934 0)
(27.937244 -0.03033708 0)
(28.386768 -0.029241738 0)
(29.364539 -0.014805104 0)
(30.942645 0.0016888689 0)
(32.893146 0.012634314 0)
(34.936497 0.020374469 0)
(36.744564 0.02299207 0)
(37.920057 0.022885237 0)
(38.27226 0.019959428 0)
(37.320288 0.016269533 0)
(34.983682 0.012776597 0)
(31.695301 0.0095445729 0)
(27.95769 0.0069402316 0)
(24.165021 0.0049210607 0)
(20.548548 0.003417898 0)
(17.233262 0.002329126 0)
(14.278066 0.0015584591 0)
(11.693523 0.0010234672 0)
(9.46046 0.00065794013 0)
(7.5467198 0.00041213472 0)
(5.9161653 0.00024971247 0)
(4.532976 0.00014463745 0)
(3.3636165 7.8491204e-05 0)
(2.3776832 3.8506286e-05 0)
(1.548176 1.5790724e-05 0)
(0.8514618 4.5141207e-06 0)
(0.26707348 1.2674138e-07 0)
(27.240346 -0.0059461867 0)
(27.39992 -0.016843446 0)
(27.663741 -0.025664196 0)
(27.927035 -0.03035907 0)
(28.374882 -0.029305157 0)
(29.349028 -0.014923026 0)
(30.923571 0.0016004199 0)
(32.871618 0.012553577 0)
(34.913442 0.020325456 0)
(36.720682 0.022959344 0)
(37.895507 0.022870922 0)
(38.246299 0.019950165 0)
(37.292512 0.016263795 0)
(34.955688 0.012768734 0)
(31.66856 0.0095373191 0)
(27.933316 0.0069341835 0)
(24.143506 0.0049165001 0)
(20.529989 0.0034147937 0)
(17.21756 0.0023272163 0)
(14.265008 0.0015574308 0)
(11.682821 0.001023041 0)
(9.451812 0.00065787792 0)
(7.5398357 0.00041230649 0)
(5.9107824 0.00025000524 0)
(4.5288623 0.00014496262 0)
(3.3605712 7.8858128e-05 0)
(2.3755343 3.8799976e-05 0)
(1.5467782 1.5935488e-05 0)
(0.85069303 4.5423197e-06 0)
(0.26683209 1.2183004e-07 0)
(27.231341 -0.0059572594 0)
(27.390709 -0.016854098 0)
(27.654111 -0.025680596 0)
(27.916827 -0.030381133 0)
(28.363004 -0.029368267 0)
(29.333531 -0.015041296 0)
(30.904505 0.0015109025 0)
(32.850095 0.012472 0)
(34.890389 0.020275673 0)
(36.696805 0.022925929 0)
(37.870967 0.022855722 0)
(38.220349 0.019940214 0)
(37.264743 0.016257214 0)
(34.9277 0.012760083 0)
(31.641826 0.009529047 0)
(27.908952 0.0069268153 0)
(24.122001 0.0049103612 0)
(20.51144 0.003409955 0)
(17.201867 0.0023235269 0)
(14.251956 0.0015546973 0)
(11.672124 0.0010210184 0)
(9.4431655 0.00065641355 0)
(7.5329518 0.00041121464 0)
(5.9053989 0.00024918915 0)
(4.5247478 0.0001443606 0)
(3.3575249 7.8362237e-05 0)
(2.3733846 3.845722e-05 0)
(1.5453798 1.5776181e-05 0)
(0.8499239 4.5198105e-06 0)
(0.26659058 1.3157826e-07 0)
(27.222334 -0.0059684179 0)
(27.381497 -0.016864807 0)
(27.644481 -0.025697107 0)
(27.906621 -0.030403414 0)
(28.351134 -0.029431424 0)
(29.318047 -0.015159783 0)
(30.88545 0.0014209031 0)
(32.828576 0.012389601 0)
(34.86734 0.020225265 0)
(36.672932 0.022892216 0)
(37.846436 0.022840273 0)
(38.19441 0.0199306 0)
(37.236983 0.016251422 0)
(34.89972 0.012753048 0)
(31.615101 0.0095229621 0)
(27.884602 0.0069220502 0)
(24.100513 0.0049071419 0)
(20.492909 0.003408106 0)
(17.186193 0.0023227875 0)
(14.238922 0.0015546717 0)
(11.661442 0.0010214714 0)
(9.4345327 0.00065706491 0)
(7.5260792 0.00041197729 0)
(5.9000244 0.0002499522 0)
(4.5206401 0.00014504381 0)
(3.3544836 7.9012346e-05 0)
(2.3712384 3.8946032e-05 0)
(1.5439836 1.6017604e-05 0)
(0.84915599 4.5487715e-06 0)
(0.26634944 1.1296078e-07 0)
(27.213325 -0.0059796263 0)
(27.372282 -0.0168755 0)
(27.63485 -0.02571373 0)
(27.896417 -0.030426096 0)
(28.339272 -0.029494738 0)
(29.302577 -0.015278497 0)
(30.866403 0.0013305499 0)
(32.807062 0.012306756 0)
(34.844295 0.02017397 0)
(36.649065 0.022857328 0)
(37.821917 0.022823317 0)
(38.168484 0.019919431 0)
(37.209233 0.016243726 0)
(34.871747 0.012744036 0)
(31.588386 0.0095144117 0)
(27.860262 0.0069143388 0)
(24.079036 0.0049005756 0)
(20.474389 0.0034027727 0)
(17.170528 0.0023185455 0)
(14.225896 0.0015513764 0)
(11.650766 0.0010188868 0)
(9.4259047 0.00065506942 0)
(7.5192102 0.0004103941 0)
(5.8946526 0.00024869184 0)
(4.5165345 0.00014406578 0)
(3.3514439 7.818933e-05 0)
(2.3690934 3.8362787e-05 0)
(1.5425882 1.5734936e-05 0)
(0.84838852 4.4974484e-06 0)
(0.26610846 1.2463631e-07 0)
(27.204314 -0.0059908766 0)
(27.363065 -0.016886177 0)
(27.625218 -0.025730435 0)
(27.886214 -0.030449083 0)
(28.327417 -0.029557905 0)
(29.28712 -0.015397562 0)
(30.847366 0.0012389509 0)
(32.785554 0.012223039 0)
(34.821253 0.020121769 0)
(36.625204 0.022821479 0)
(37.797408 0.022805545 0)
(38.142571 0.019907884 0)
(37.181493 0.016235939 0)
(34.843783 0.012735672 0)
(31.56168 0.0095069639 0)
(27.835934 0.0069081265 0)
(24.057573 0.0048958439 0)
(20.455884 0.0033994941 0)
(17.154878 0.0023164777 0)
(14.212883 0.0015502196 0)
(11.640103 0.0010183736 0)
(9.4172875 0.00065496653 0)
(7.5123502 0.00041056863 0)
(5.8892881 0.00024902376 0)
(4.5124346 0.00014444916 0)
(3.3484084 7.8634236e-05 0)
(2.3669512 3.8724417e-05 0)
(1.5411947 1.5915694e-05 0)
(0.84762209 4.5363727e-06 0)
(0.26586779 1.2038381e-07 0)
(27.1953 -0.0060021811 0)
(27.353847 -0.016896933 0)
(27.615587 -0.025747256 0)
(27.876012 -0.030472427 0)
(28.315571 -0.029621407 0)
(29.271677 -0.015516722 0)
(30.828339 0.0011471726 0)
(32.76405 0.012138649 0)
(34.798215 0.02006897 0)
(36.601348 0.022785188 0)
(37.772911 0.022787148 0)
(38.116672 0.0198958 0)
(37.153763 0.016227511 0)
(34.815828 0.012726658 0)
(31.534983 0.009498523 0)
(27.811615 0.0069005469 0)
(24.03612 0.0048894326 0)
(20.437389 0.0033943188 0)
(17.139237 0.002312407 0)
(14.199877 0.0015470975 0)
(11.629443 0.0010159738 0)
(9.4086715 0.0006531475 0)
(7.5054901 0.00040914779 0)
(5.8839228 0.00024790873 0)
(4.5083336 0.00014359082 0)
(3.3453719 7.7905211e-05 0)
(2.3648083 3.8207643e-05 0)
(1.5398005 1.5666718e-05 0)
(0.8468553 4.4888665e-06 0)