/*--------------------------------*- C++ -*----------------------------------*\
| =========                 |                                                 |
| \\      /  F ield         | OpenFOAM: The Open Source CFD Toolbox           |
|  \\    /   O peration     | Version:  v2012                                 |
|   \\  /    A nd           | Website:  www.openfoam.com                      |
|    \\/     M anipulation  |                                                 |
\*---------------------------------------------------------------------------*/
FoamFile
{
    version     2.0;
    format      ascii;
    class       volScalarField;
    location    "550";
    object      alphat;
}
// * * * * * * * * * * * * * * * * * * * * * * * * * * * * * * * * * * * * * //

dimensions      [1 -1 -1 0 0 0 0];


internalField   nonuniform List<scalar> 
24000
(
0.00079043382
0.00024110817
0.00014290915
0.00011170513
0.00012571546
0.00011877348
9.7644922e-05
7.564767e-05
5.6734814e-05
4.4887637e-05
2.7355501e-05
1.2792788e-05
8.1565829e-06
5.4863494e-06
3.1310313e-06
1.8343436e-06
1.0510122e-06
5.2451063e-07
2.0917701e-07
7.2615449e-08
2.2588644e-08
6.4237602e-09
1.6765161e-09
3.9611318e-10
8.2046269e-11
1.4114291e-11
1.8999394e-12
2.6742583e-13
1.4817148e-13
1.5792399e-13
0.00079245273
0.00023781761
0.00014122369
0.00011108602
0.00012541098
0.000118655
9.7642237e-05
7.5669749e-05
5.6770822e-05
4.4932954e-05
2.734127e-05
1.2783767e-05
8.1444702e-06
5.468348e-06
3.1220121e-06
1.8296116e-06
1.0483338e-06
5.230593e-07
2.0856794e-07
7.2399373e-08
2.2521309e-08
6.4047761e-09
1.6716497e-09
3.9499224e-10
8.1821736e-11
1.4077821e-11
1.8961073e-12
2.6780459e-13
1.4891204e-13
1.5864648e-13
0.0007945525
0.00024062819
0.00014361107
0.00011168181
0.00012519927
0.00011831511
9.7329444e-05
7.5436374e-05
5.6561681e-05
4.4722346e-05
2.7301428e-05
1.2763536e-05
8.1288179e-06
5.4518069e-06
3.1130073e-06
1.8246444e-06
1.045416e-06
5.2136415e-07
2.0785923e-07
7.2151095e-08
2.2445349e-08
6.3837888e-09
1.6663455e-09
3.9377676e-10
8.1576796e-11
1.403666e-11
1.890627e-12
2.6699081e-13
1.4844022e-13
1.5816087e-13
0.00079667909
0.00024191535
0.00014447735
0.00011170312
0.00012499343
0.00011816379
9.7196337e-05
7.5313995e-05
5.6446452e-05
4.4603983e-05
2.7254362e-05
1.2739329e-05
8.112163e-06
5.4341447e-06
3.1035129e-06
1.8194104e-06
1.042334e-06
5.195266e-07
2.0706453e-07
7.1860741e-08
2.2352684e-08
6.3572184e-09
1.659422e-09
3.9215181e-10
8.1243675e-11
1.3980458e-11
1.8836751e-12
2.6656226e-13
1.4853736e-13
1.5824034e-13
0.00079882494
0.00024313727
0.00014519724
0.00011168126
0.00012478928
0.00011802731
9.7065309e-05
7.5189391e-05
5.632889e-05
4.44867e-05
2.7201062e-05
1.271174e-05
8.0945134e-06
5.4161651e-06
3.0936575e-06
1.8138917e-06
1.0390645e-06
5.1759538e-07
2.062397e-07
7.156364e-08
2.2259052e-08
6.3306294e-09
1.6525423e-09
3.9054511e-10
8.09152e-11
1.3924888e-11
1.8765288e-12
2.6581716e-13
1.482832e-13
1.5796214e-13
0.0008009869
0.00024407982
0.00014571807
0.00011162274
0.00012458685
0.0001178967
9.6941506e-05
7.5074186e-05
5.6221371e-05
4.4377442e-05
2.7143967e-05
1.2681995e-05
8.0762271e-06
5.3978866e-06
3.0835265e-06
1.8081517e-06
1.0356337e-06
5.1552619e-07
2.0534438e-07
7.1237537e-08
2.2155375e-08
6.3009958e-09
1.6448374e-09
3.8873903e-10
8.0544922e-11
1.3862156e-11
1.868508e-12
2.6504496e-13
1.4807346e-13
1.5772673e-13
0.00080316205
0.00024486153
0.00014615899
0.00011155317
0.00012438588
0.00011776758
9.6820284e-05
7.4962831e-05
5.611689e-05
4.4271947e-05
2.7084405e-05
1.2650873e-05
8.0575495e-06
5.3793774e-06
3.0732039e-06
1.8022721e-06
1.0321137e-06
5.1340218e-07
2.0442567e-07
7.0903116e-08
2.2049103e-08
6.2706263e-09
1.6369408e-09
3.8688763e-10
8.0165197e-11
1.3797759e-11
1.8602318e-12
2.6420689e-13
1.4780902e-13
1.5743458e-13
0.00080534816
0.00024553234
0.00014655661
0.00011147849
0.00012418625
0.00011763907
9.6700754e-05
7.4853593e-05
5.6013941e-05
4.4168804e-05
2.7023248e-05
1.2618858e-05
8.0386243e-06
5.3607565e-06
3.0627734e-06
1.7963064e-06
1.0285349e-06
5.1123422e-07
2.0348609e-07
7.0560558e-08
2.1940114e-08
6.2394502e-09
1.6288283e-09
3.8498441e-10
7.9774621e-11
1.3731485e-11
1.851706e-12
2.6333884e-13
1.4753137e-13
1.5712829e-13
0.00080754336
0.00024613471
0.00014693211
0.00011140255
0.00012398782
0.00011751086
9.658225e-05
7.4745545e-05
5.5911943e-05
4.4067221e-05
2.6961054e-05
1.2586272e-05
8.01955e-06
5.3420766e-06
3.0522805e-06
1.7902895e-06
1.0249221e-06
5.0904341e-07
2.0253622e-07
7.0214139e-08
2.1829864e-08
6.207904e-09
1.6206171e-09
3.8305744e-10
7.9379056e-11
1.3664336e-11
1.8430565e-12
2.6244881e-13
1.4723888e-13
1.568065e-13
0.00080974608
0.00024669502
0.0001472957
0.000111327
0.0001237905
0.0001173828
9.646435e-05
7.4638179e-05
5.5810545e-05
4.396667e-05
2.6898184e-05
1.255332e-05
8.0003875e-06
5.3233798e-06
3.0417569e-06
1.7842431e-06
1.0212893e-06
5.0683893e-07
2.0158016e-07
6.9865382e-08
2.1718839e-08
6.1761272e-09
1.6123436e-09
3.8111539e-10
7.8980289e-11
1.3596622e-11
1.8343272e-12
2.6154524e-13
1.469376e-13
1.5647555e-13
0.00081195495
0.00024722978
0.00014765285
0.0001112527
0.00012359419
0.0001172548
9.6346847e-05
7.4531247e-05
5.5709544e-05
4.3866832e-05
2.6834872e-05
1.2520135e-05
7.9811771e-06
5.304691e-06
3.0312228e-06
1.7781819e-06
1.0176465e-06
5.0462816e-07
2.0062143e-07
6.9515667e-08
2.1607499e-08
6.1442561e-09
1.6040444e-09
3.7916693e-10
7.8580139e-11
1.3528657e-11
1.8255599e-12
2.6063339e-13
1.4663003e-13
1.5613809e-13
0.00081416866
0.00024774846
0.00014800644
0.00011118003
0.00012339885
0.0001171268
9.6229599e-05
7.4424619e-05
5.5608828e-05
4.3767343e-05
2.6771274e-05
1.2486807e-05
7.9619447e-06
5.2860273e-06
3.0206916e-06
1.7721152e-06
1.0139995e-06
5.0241521e-07
1.9966191e-07
6.9165689e-08
2.1496073e-08
6.112357e-09
1.5957368e-09
3.7721622e-10
7.8179462e-11
1.3460588e-11
1.8167746e-12
2.5971615e-13
1.4631782e-13
1.5579591e-13
0.00081638602
0.0002482563
0.00014835799
0.00011110919
0.00012320444
0.00011699877
9.6112538e-05
7.4318177e-05
5.5508324e-05
4.3668227e-05
2.6707496e-05
1.2453396e-05
7.942708e-06
5.2674007e-06
3.0101727e-06
1.7660498e-06
1.0103529e-06
5.0020324e-07
1.987031e-07
6.8816032e-08
2.1384754e-08
6.0804874e-09
1.5874362e-09
3.7526692e-10
7.7779028e-11
1.3392551e-11
1.8079899e-12
2.5879641e-13
1.4600273e-13
1.5545085e-13
0.00081860588
0.00024875651
0.00014870827
0.00011104022
0.0001230109
0.00011687066
9.5995589e-05
7.421186e-05
5.5407988e-05
4.3569611e-05
2.6643612e-05
1.2419942e-05
7.9234784e-06
5.2488177e-06
2.9996712e-06
1.7599895e-06
1.0067092e-06
4.9799408e-07
1.9774583e-07
6.8467006e-08
2.1273642e-08
6.0486763e-09
1.5791499e-09
3.7332077e-10
7.737919e-11
1.3324603e-11
1.7992135e-12
2.5787538e-13
1.4568551e-13
1.5510371e-13
0.0008208271
0.00024925113
0.00014905753
0.00011097312
0.00012281823
0.00011674245
9.5878733e-05
7.410564e-05
5.5307785e-05
4.3471324e-05
2.6579672e-05
1.2386476e-05
7.9042651e-06
5.2302826e-06
2.989192e-06
1.753938e-06
1.0030708e-06
4.9578952e-07
1.9679096e-07
6.8118954e-08
2.1162854e-08
6.0169582e-09
1.5708874e-09
3.7138003e-10
7.6980427e-11
1.3256828e-11
1.7904569e-12
2.5695465e-13
1.4536701e-13
1.5475537e-13
0.0008230486
0.00024974138
0.00014940579
0.00011090786
0.00012262639
0.00011661411
9.576196e-05
7.3999496e-05
5.520769e-05
4.3373278e-05
2.651571e-05
1.2353017e-05
7.8850742e-06
5.2117987e-06
2.9787377e-06
1.7478969e-06
9.9943876e-07
4.9359032e-07
1.9583879e-07
6.7771976e-08
2.1052422e-08
5.9853411e-09
1.5626506e-09
3.6944516e-10
7.6582826e-11
1.3189242e-11
1.781722e-12
2.5603441e-13
1.450473e-13
1.5440594e-13
0.00082526934
0.00025022811
0.00014975325
0.00011084436
0.00012243537
0.00011648562
9.5645247e-05
7.3893415e-05
5.5107684e-05
4.3275418e-05
2.6451752e-05
1.231958e-05
7.8659102e-06
5.1933693e-06
2.9683113e-06
1.7418684e-06
9.9581453e-07
4.9139743e-07
1.9488977e-07
6.7426245e-08
2.0942403e-08
5.9538427e-09
1.5544444e-09
3.6751734e-10
7.6186637e-11
1.3121888e-11
1.7730152e-12
2.5511591e-13
1.4472727e-13
1.5405634e-13
0.00082748828
0.00025071175
0.00015009991
0.00011078261
0.00012224515
0.00011635694
9.5528554e-05
7.3787352e-05
5.5007757e-05
4.3177672e-05
2.6387816e-05
1.2286175e-05
7.846776e-06
5.1749954e-06
2.9579137e-06
1.7358531e-06
9.9219842e-07
4.8921111e-07
1.9394399e-07
6.7081783e-08
2.08328e-08
5.9224634e-09
1.5462687e-09
3.6559648e-10
7.5791831e-11
1.305476e-11
1.7643354e-12
2.5419908e-13
1.4440695e-13
1.5370658e-13
0.00082970443
0.00025119192
0.00015044548
0.00011072262
0.00012205572
0.00011622805
9.5411887e-05
7.3681298e-05
5.4907897e-05
4.3080037e-05
2.6323919e-05
1.2252812e-05
7.8276742e-06
5.1566787e-06
2.9475468e-06
1.7298523e-06
9.8859151e-07
4.8703213e-07
1.9300187e-07
6.6738767e-08
2.0723673e-08
5.8912215e-09
1.5381286e-09
3.6368386e-10
7.5398688e-11
1.2987908e-11
1.7556894e-12
2.5328479e-13
1.4408676e-13
1.5335712e-13
0.00083191683
0.00025166787
0.00015078999
0.00011066434
0.00012186707
0.00011609897
9.5295245e-05
7.3575268e-05
5.4808098e-05
4.2982505e-05
2.6260077e-05
1.2219496e-05
7.8086064e-06
5.1384198e-06
2.9372109e-06
1.7238664e-06
9.8499382e-07
4.8486051e-07
1.920634e-07
6.6397171e-08
2.0615011e-08
5.8601132e-09
1.5300228e-09
3.6177915e-10
7.5007128e-11
1.2921318e-11
1.7470752e-12
2.5237268e-13
1.4376645e-13
1.530077e-13
0.00083412455
0.00025213903
0.00015113344
0.00011060777
0.00012167917
0.00011596969
9.5178632e-05
7.3469245e-05
5.4708358e-05
4.2885051e-05
2.6196311e-05
1.218623e-05
7.7895734e-06
5.1202205e-06
2.9269072e-06
1.7178966e-06
9.8140618e-07
4.8269666e-07
1.9112879e-07
6.6057099e-08
2.0506853e-08
5.8291508e-09
1.5219549e-09
3.5988322e-10
7.4617347e-11
1.2855024e-11
1.7384978e-12
2.5146366e-13
1.4344665e-13
1.5265898e-13
0.00083632672
0.00025260514
0.00015147563
0.00011055297
0.00012149204
0.00011584019
9.5062038e-05
7.3363221e-05
5.4608681e-05
4.2787828e-05
2.6132641e-05
1.2153019e-05
7.7705757e-06
5.1020808e-06
2.9166358e-06
1.7119425e-06
9.778282e-07
4.8054031e-07
1.9019787e-07
6.5718461e-08
2.0399164e-08
5.7983229e-09
1.5139214e-09
3.5799522e-10
7.4229149e-11
1.2788991e-11
1.7299524e-12
2.5055713e-13
1.4312709e-13
1.5231066e-13
0.00083852247
0.0002530663
0.00015181645
0.00011049984
0.00012130566
0.00011571045
9.4945452e-05
7.3257189e-05
5.4509062e-05
4.2690757e-05
2.6069042e-05
1.2119865e-05
7.7516149e-06
5.0840019e-06
2.9063976e-06
1.7060052e-06
9.7426066e-07
4.7839201e-07
1.8927093e-07
6.5381404e-08
2.0291996e-08
5.7676453e-09
1.505927e-09
3.5611629e-10
7.3842787e-11
1.2723265e-11
1.7214449e-12
2.4965381e-13
1.4280805e-13
1.5196305e-13
0.000840711
0.00025352267
0.00015215584
0.00011044831
0.00012112002
0.00011558052
9.4828885e-05
7.3151139e-05
5.4409491e-05
4.2593827e-05
2.6005525e-05
1.2086769e-05
7.7326918e-06
5.0659832e-06
2.8961927e-06
1.7000845e-06
9.7070332e-07
4.7625159e-07
1.8834783e-07
6.5045851e-08
2.0185318e-08
5.7371085e-09
1.4979687e-09
3.5424572e-10
7.3458102e-11
1.2657816e-11
1.7129715e-12
2.4875303e-13
1.4248914e-13
1.5161573e-13
0.00084289156
0.00025397451
0.00015249369
0.00011039842
0.00012093512
0.00011545035
9.471233e-05
7.3045088e-05
5.4309964e-05
4.2497018e-05
2.5942096e-05
1.2053734e-05
7.7138072e-06
5.0480261e-06
2.8860224e-06
1.6941815e-06
9.6715699e-07
4.7411945e-07
1.874288e-07
6.4711897e-08
2.0079168e-08
5.7067242e-09
1.49005e-09
3.5238434e-10
7.3075281e-11
1.2592678e-11
1.704537e-12
2.4785577e-13
1.4217103e-13
1.5126942e-13
0.00084506343
0.00025442202
0.00015283009
0.00011035015
0.00012075097
0.00011531991
9.4595772e-05
7.2939008e-05
5.421047e-05
4.2400334e-05
2.587874e-05
1.2020758e-05
7.6949612e-06
5.0301307e-06
2.8758865e-06
1.6882956e-06
9.6362126e-07
4.7199527e-07
1.8651361e-07
6.4379432e-08
1.9973502e-08
5.6764784e-09
1.4821669e-09
3.5053113e-10
7.2694095e-11
1.252781e-11
1.6961358e-12
2.469613e-13
1.4185341e-13
1.5092376e-13
0.00084722594
0.00025486482
0.00015316499
0.00011030349
0.00012056756
0.00011518923
9.4479207e-05
7.2832892e-05
5.4111017e-05
4.2303778e-05
2.5815463e-05
1.1987843e-05
7.6761544e-06
5.0122974e-06
2.8657854e-06
1.6824276e-06
9.6009683e-07
4.6987964e-07
1.8560261e-07
6.4048613e-08
1.9868379e-08
5.6463896e-09
1.4743246e-09
3.486874e-10
7.2314831e-11
1.2463263e-11
1.6877747e-12
2.460704e-13
1.4153656e-13
1.5057907e-13
0.00084937847
0.00025530215
0.00015349825
0.00011025848
0.00012038487
0.00011505833
9.4362651e-05
7.2726749e-05
5.4011601e-05
4.2207344e-05
2.5752266e-05
1.1954989e-05
7.6573865e-06
4.9945259e-06
2.8557188e-06
1.6765773e-06
9.5658335e-07
4.6777246e-07
1.8469563e-07
6.3719352e-08
1.9763765e-08
5.6164467e-09
1.4665199e-09
3.4685233e-10
7.193731e-11
1.2399005e-11
1.6794491e-12
2.4518228e-13
1.4121996e-13
1.502348e-13
0.00085152045
0.00025573343
0.00015383052
0.00011021519
0.00012020293
0.00011492716
9.4246086e-05
7.2620562e-05
5.3912203e-05
4.2111026e-05
2.5689139e-05
1.1922194e-05
7.6386576e-06
4.9768177e-06
2.8456876e-06
1.6707454e-06
9.5308152e-07
4.6567403e-07
1.8379287e-07
6.339174e-08
1.9659696e-08
5.5866614e-09
1.4587561e-09
3.4502679e-10
7.1561729e-11
1.2335071e-11
1.6711643e-12
2.4429789e-13
1.4090425e-13
1.4989162e-13
0.00085365136
0.00025615848
0.00015416149
0.00011017362
0.00012002173
0.00011479573
9.4129525e-05
7.2514349e-05
5.3812833e-05
4.2014821e-05
2.5626084e-05
1.1889459e-05
7.6199677e-06
4.9591726e-06
2.8356913e-06
1.6649311e-06
9.4959061e-07
4.6358379e-07
1.8289405e-07
6.3065637e-08
1.9556117e-08
5.5570162e-09
1.4510282e-09
3.4320951e-10
7.1187803e-11
1.227141e-11
1.6629135e-12
2.4341641e-13
1.405891e-13
1.4954916e-13
0.00085577071
0.00025657733
0.00015449059
0.00011013369
0.00011984127
0.0001146641
9.401297e-05
7.2408097e-05
5.3713498e-05
4.1918784e-05
2.5563099e-05
1.1856784e-05
7.6013178e-06
4.9415904e-06
2.8257307e-06
1.6591355e-06
9.4611138e-07
4.6150228e-07
1.8199948e-07
6.2741198e-08
1.9453088e-08
5.5275299e-09
1.4433417e-09
3.4140186e-10
7.0815834e-11
1.2208077e-11
1.6547036e-12
2.4253857e-13
1.4027472e-13
1.4920765e-13
0.0008578781
0.00025699029
0.00015481785
0.00011009543
0.00011966155
0.00011453222
9.3896409e-05
7.2301783e-05
5.3614181e-05
4.1822859e-05
2.550018e-05
1.1824167e-05
7.5827083e-06
4.9240712e-06
2.8158056e-06
1.6533581e-06
9.4264323e-07
4.5942908e-07
1.8110894e-07
6.2418303e-08
1.935056e-08
5.4981874e-09
1.4356921e-09
3.3960274e-10
7.0445584e-11
1.2145029e-11
1.6465287e-12
2.4166338e-13
1.3996047e-13
1.4886645e-13
0.00085997314
0.00025739776
0.00015514333
0.00011005887
0.00011948258
0.00011440007
9.3779827e-05
7.2195421e-05
5.3514878e-05
4.1727031e-05
2.5437326e-05
1.1791608e-05
7.5641392e-06
4.9066164e-06
2.8059172e-06
1.6476e-06
9.3918703e-07
4.5736455e-07
1.802226e-07
6.2097049e-08
1.9248573e-08
5.4690013e-09
1.4280833e-09
3.3781312e-10
7.0077261e-11
1.2082303e-11
1.6383945e-12
2.4079196e-13
1.3964719e-13
1.4852639e-13
0.00086205553
0.00025779988
0.00015546688
0.00011002397
0.00011930438
0.0001142677
9.3663246e-05
7.2089005e-05
5.3415592e-05
4.1631283e-05
2.5374535e-05
1.1759107e-05
7.5456103e-06
4.8892253e-06
2.7960648e-06
1.6418604e-06
9.3574209e-07
4.5530824e-07
1.7934016e-07
6.1777284e-08
1.9147067e-08
5.4399521e-09
1.4205096e-09
3.3603153e-10
6.9710545e-11
1.2019842e-11
1.6302931e-12
2.399234e-13
1.393345e-13
1.4818711e-13
0.00086412497
0.00025819664
0.00015578861
0.00010999072
0.00011912692
0.00011413509
9.3546662e-05
7.1982531e-05
5.3316321e-05
4.1535649e-05
2.5311806e-05
1.1726662e-05
7.5271218e-06
4.8718991e-06
2.7862493e-06
1.6361405e-06
9.3230944e-07
4.5326091e-07
1.7846206e-07
6.1459211e-08
1.9046117e-08
5.411064e-09
1.4129777e-09
3.3425972e-10
6.9345816e-11
1.1957715e-11
1.6222335e-12
2.3905866e-13
1.3902271e-13
1.4784891e-13
0.00086618125
0.00025858745
0.00015610857
0.00010995925
0.00011895023
0.00011400223
9.3430068e-05
7.1875993e-05
5.3217075e-05
4.1440138e-05
2.5249138e-05
1.1694273e-05
7.5086738e-06
4.8546372e-06
2.7764703e-06
1.6304397e-06
9.2888854e-07
4.512222e-07
1.7758806e-07
6.1142715e-08
1.8945677e-08
5.3823218e-09
1.4054834e-09
3.3249656e-10
6.8982829e-11
1.1895876e-11
1.6142095e-12
2.3819668e-13
1.3871115e-13
1.475111e-13
0.00086822419
0.0002589715
0.00015642658
0.00010992961
0.00011877432
0.00011386915
9.331348e-05
7.1769397e-05
5.3117858e-05
4.1344747e-05
2.5186529e-05
1.1661939e-05
7.4902666e-06
4.8374415e-06
2.7667289e-06
1.6247589e-06
9.2548032e-07
4.4919256e-07
1.7671843e-07
6.0827922e-08
1.8845797e-08
5.3537421e-09
1.3980314e-09
3.3074332e-10
6.8621863e-11
1.1834377e-11
1.6062285e-12
2.3733875e-13
1.3840065e-13
1.4717454e-13
0.00087025366
0.00025934864
0.00015674265
0.00010990174
0.00011859919
0.00011373588
9.3196904e-05
7.1662759e-05
5.3018664e-05
4.1249465e-05
2.5123976e-05
1.1629656e-05
7.4718998e-06
4.8203107e-06
2.757024e-06
1.619097e-06
9.2208366e-07
4.4717124e-07
1.7585272e-07
6.0514625e-08
1.8746399e-08
5.325299e-09
1.3906143e-09
3.2899809e-10
6.8262501e-11
1.1773143e-11
1.5982802e-12
2.3648363e-13
1.3809068e-13
1.4683867e-13
0.00087226958
0.00025971901
0.00015705673
0.00010987571
0.00011842484
0.00011360242
9.3080342e-05
7.1556059e-05
5.2919494e-05
4.1154301e-05
2.5061479e-05
1.1597426e-05
7.4535744e-06
4.8032455e-06
2.7473566e-06
1.613455e-06
9.1869958e-07
4.4515913e-07
1.7499137e-07
6.0203029e-08
1.864756e-08
5.2970181e-09
1.3832396e-09
3.2726275e-10
6.7905153e-11
1.1712247e-11
1.5903745e-12
2.3563234e-13
1.3778155e-13
1.4650382e-13
0.00087427191
0.0002600827
0.00015736868
0.00010985154
0.00011825129
0.00011346875
9.2963781e-05
7.1449296e-05
5.2820347e-05
4.1059249e-05
2.4999035e-05
1.1565246e-05
7.4352908e-06
4.7862451e-06
2.7377261e-06
1.6078322e-06
9.1532736e-07
4.431557e-07
1.7413408e-07
5.9892982e-08
1.8549223e-08
5.2688806e-09
1.3759017e-09
3.2553592e-10
6.7549518e-11
1.1651636e-11
1.5825037e-12
2.3478362e-13
1.3747249e-13
1.4616917e-13
0.00087626066
0.00026043998
0.00015767856
0.00010982915
0.00011807856
0.00011333491
9.2847226e-05
7.1342466e-05
5.2721212e-05
4.0964305e-05
2.4936645e-05
1.1533117e-05
7.4170487e-06
4.7693115e-06
2.7281337e-06
1.60223e-06
9.1196796e-07
4.4116134e-07
1.7328114e-07
5.958462e-08
1.8451441e-08
5.2409043e-09
1.3686059e-09
3.2381897e-10
6.7195898e-11
1.1591364e-11
1.5746758e-12
2.3393894e-13
1.3716447e-13
1.4583576e-13
0.00087823589
0.00026079117
0.00015798632
0.00010980856
0.00011790663
0.0001132009
9.2730674e-05
7.1235567e-05
5.2622085e-05
4.0869456e-05
2.4874307e-05
1.1501036e-05
7.3988476e-06
4.7524441e-06
2.7185785e-06
1.5966474e-06
9.0862032e-07
4.391753e-07
1.7243207e-07
5.9277717e-08
1.8354128e-08
5.2130605e-09
1.361344e-09
3.2210975e-10
6.6843825e-11
1.1531348e-11
1.5668795e-12
2.33097e-13
1.36857e-13
1.4550305e-13
0.0008801977
0.00026113633
0.00015829184
0.00010978986
0.00011773554
0.00011306671
9.261413e-05
7.1128607e-05
5.2522972e-05
4.0774719e-05
2.4812023e-05
1.1469005e-05
7.3806886e-06
4.7356441e-06
2.7090617e-06
1.5910856e-06
9.0528567e-07
4.3719852e-07
1.7158744e-07
5.8972529e-08
1.8257377e-08
5.18538e-09
1.3541247e-09
3.2041051e-10
6.6493789e-11
1.1471674e-11
1.5591265e-12
2.3225902e-13
1.3655047e-13
1.4517146e-13
0.00088214621
0.00026147509
0.00015859518
0.00010977303
0.00011756529
0.00011293236
9.24976e-05
7.1021569e-05
5.2423889e-05
4.0680104e-05
2.4749793e-05
1.1437021e-05
7.3625718e-06
4.7189105e-06
2.6995828e-06
1.5855438e-06
9.0196325e-07
4.3523052e-07
1.7074694e-07
5.8668905e-08
1.8161133e-08
5.1578438e-09
1.3469425e-09
3.1871984e-10
6.6145479e-11
1.1412287e-11
1.5514087e-12
2.3142369e-13
1.3624404e-13
1.448401e-13
0.00088408162
0.00026180662
0.00015889634
0.00010975814
0.00011739588
0.00011279789
9.2381094e-05
7.0914477e-05
5.2324841e-05
4.0585621e-05
2.4687617e-05
1.1405082e-05
7.3444974e-06
4.7022451e-06
2.690143e-06
1.5800232e-06
8.9865405e-07
4.3327181e-07
1.6991088e-07
5.8366998e-08
1.8065454e-08
5.1304717e-09
1.3398032e-09
3.1703923e-10
6.5799229e-11
1.1353247e-11
1.5437352e-12
2.3059255e-13
1.3593872e-13
1.4451005e-13
0.00088600414
0.00026213047
0.00015919511
0.00010974527
0.00011722734
0.00011266329
9.226461e-05
7.0807322e-05
5.2225819e-05
4.0491257e-05
2.4625493e-05
1.1373187e-05
7.3264654e-06
4.685647e-06
2.6807412e-06
1.5745224e-06
8.9535683e-07
4.3132154e-07
1.6907873e-07
5.8066566e-08
1.7970246e-08
5.1032329e-09
1.332698e-09
3.1536641e-10
6.5454542e-11
1.1294466e-11
1.5360935e-12
2.2976415e-13
1.3563391e-13
1.4418064e-13
0.00088791402
0.0002624467
0.00015949145
0.00010973437
0.00011705967
0.00011252862
9.2148172e-05
7.0700115e-05
5.212684e-05
4.0397027e-05
2.4563423e-05
1.1341334e-05
7.3084767e-06
4.6691164e-06
2.6713779e-06
1.5690424e-06
8.9207275e-07
4.2938053e-07
1.6825101e-07
5.7767842e-08
1.7875599e-08
5.0761569e-09
1.3256352e-09
3.1370356e-10
6.5111891e-11
1.1236027e-11
1.5284953e-12
2.2893967e-13
1.3532996e-13
1.4385228e-13
0.00088981155
0.00026275545
0.0001597854
0.00010972546
0.00011689288
0.00011239389
9.2031777e-05
7.0592864e-05
5.2027922e-05
4.0302943e-05
2.4501403e-05
1.130952e-05
7.2905311e-06
4.6526529e-06
2.6620524e-06
1.5635824e-06
8.8880082e-07
4.2744812e-07
1.674273e-07
5.7470644e-08
1.7781445e-08
5.0492217e-09
1.3186087e-09
3.1204908e-10
6.477093e-11
1.117787e-11
1.5209316e-12
2.2811768e-13
1.35026e-13
1.4352401e-13
0.00089169707
0.00026305685
0.00016007683
0.00010971857
0.00011672698
0.00011225909
9.1915397e-05
7.048555e-05
5.1929043e-05
4.020899e-05
2.4439436e-05
1.1277745e-05
7.2726286e-06
4.6362584e-06
2.6527658e-06
1.5581435e-06
8.8554218e-07
4.2552478e-07
1.6660789e-07
5.7175114e-08
1.7687837e-08
5.0224455e-09
1.3116239e-09
3.1040439e-10
6.4431974e-11
1.112005e-11
1.5134109e-12
2.2729973e-13
1.3472306e-13
1.4319696e-13
0.00089357093
0.00026335114
0.00016036567
0.00010971365
0.000116562
0.00011212426
9.1799054e-05
7.0378187e-05
5.1830188e-05
4.0115154e-05
2.4377521e-05
1.1246007e-05
7.2547692e-06
4.6199322e-06
2.6435171e-06
1.5527246e-06
8.8229572e-07
4.236099e-07
1.6579231e-07
5.688102e-08
1.7594688e-08
4.9957986e-09
1.304672e-09
3.0876725e-10
6.409453e-11
1.1062481e-11
1.5059212e-12
2.2648449e-13
1.3442067e-13
1.4287059e-13
0.00089543354
0.00026363858
0.00016065201
0.00010971071
0.00011639793
0.00011198943
9.1682747e-05
7.0270763e-05
5.1731375e-05
4.0021453e-05
2.4315663e-05
1.1214306e-05
7.2369546e-06
4.6036747e-06
2.6343075e-06
1.5473273e-06
8.7906271e-07
4.2170447e-07
1.6498116e-07
5.6588633e-08
1.7502097e-08
4.9693138e-09
1.2977626e-09
3.0714006e-10
6.3759121e-11
1.1005255e-11
1.498475e-12
2.2567325e-13
1.3411923e-13
1.4254534e-13
0.00089728531
0.00026391909
0.00016093575
0.00010970982
0.00011623479
0.00011185456
9.1566465e-05
7.0163291e-05
5.1632614e-05
3.9927895e-05
2.4253863e-05
1.118264e-05
7.2191851e-06
4.5874857e-06
2.6251366e-06
1.5419506e-06
8.7584229e-07
4.1980788e-07
1.6417411e-07
5.6297796e-08
1.7410007e-08
4.9429717e-09
1.2908898e-09
3.0552136e-10
6.3425428e-11
1.0948315e-11
1.4910641e-12
2.2486468e-13
1.3381789e-13
1.4222031e-13
0.00089912672
0.00026419203
0.00016121682
0.00010971096
0.00011607259
0.00011171974
9.1450221e-05
7.0055764e-05
5.1533904e-05
3.9834481e-05
2.4192123e-05
1.1151008e-05
7.2014613e-06
4.5713666e-06
2.6160056e-06
1.5365957e-06
8.7263538e-07
4.1792062e-07
1.6337146e-07
5.6008653e-08
1.7318472e-08
4.9167911e-09
1.2840594e-09
3.0391262e-10
6.3093776e-11
1.0891719e-11
1.4836972e-12
2.2406026e-13
1.3351764e-13
1.4189654e-13
0.00090095826
0.00026445666
0.00016149521
0.0001097142
0.00011591134
0.00011158501
9.1334029e-05
6.9948193e-05
5.1435259e-05
3.9741215e-05
2.4130444e-05
1.1119405e-05
7.1837833e-06
4.5553166e-06
2.6069132e-06
1.5312609e-06
8.6944065e-07
4.1604178e-07
1.6257267e-07
5.5720953e-08
1.7227399e-08
4.890741e-09
1.2772623e-09
3.0231153e-10
6.2763662e-11
1.0835379e-11
1.4763619e-12
2.2325854e-13
1.3321786e-13
1.4157339e-13
0.00090278044
0.00026471273
0.00016177081
0.00010971961
0.00011575105
0.00011145033
9.1217877e-05
6.9840595e-05
5.1336689e-05
3.9648117e-05
2.4068826e-05
1.108783e-05
7.1661519e-06
4.539336e-06
2.5978598e-06
1.5259474e-06
8.6625909e-07
4.1417213e-07
1.6177823e-07
5.5434921e-08
1.7136871e-08
4.8648493e-09
1.2705067e-09
3.0072019e-10
6.2435542e-11
1.0779376e-11
1.4690693e-12
2.224607e-13
1.3291895e-13
1.4125126e-13
0.00090459382
0.00026496026
0.00016204348
0.00010972711
0.00011559174
0.00011131579
9.1101767e-05
6.9732957e-05
5.1238196e-05
3.9555184e-05
2.4007273e-05
1.1056279e-05
7.1485677e-06
4.5234241e-06
2.5888444e-06
1.5206543e-06
8.6308981e-07
4.123111e-07
1.609878e-07
5.5150395e-08
1.7046829e-08
4.8390963e-09
1.2637868e-09
2.9913712e-10
6.2109094e-11
1.0723651e-11
1.4618111e-12
2.2166539e-13
1.3262005e-13
1.4092925e-13
0.00090639896
0.00026519935
0.0001623132
0.00010973668
0.00011543339
0.00011118144
9.0985714e-05
6.962529e-05
5.1139799e-05
3.9462432e-05
2.3945785e-05
1.102475e-05
7.1310312e-06
4.5075828e-06
2.5798682e-06
1.5153824e-06
8.5993373e-07
4.1045906e-07
1.6020159e-07
5.486749e-08
1.6957319e-08
4.8134974e-09
1.2571072e-09
2.9756354e-10
6.1784594e-11
1.0668256e-11
1.4545948e-12
2.2087397e-13
1.323221e-13
1.4060837e-13
0.00090819649
0.00026543016
0.00016257993
0.00010974835
0.00011527603
0.00011104727
9.0869696e-05
6.9517587e-05
5.1041482e-05
3.936985e-05
2.3884362e-05
1.0993238e-05
7.1135429e-06
4.4918107e-06
2.57093e-06
1.5101307e-06
8.5678991e-07
4.0861521e-07
1.5941912e-07
5.4585983e-08
1.6868254e-08
4.7880245e-09
1.25046e-09
2.959974e-10
6.1461587e-11
1.0613109e-11
1.4474094e-12
2.2008525e-13
1.3202468e-13
1.4028813e-13
0.00090998702
0.00026565299
0.00016284354
0.0001097621
0.00011511967
0.00011091334
9.0753717e-05
6.9409851e-05
5.0943238e-05
3.9277445e-05
2.3823012e-05
1.0961742e-05
7.0961047e-06
4.4761083e-06
2.5620309e-06
1.5049004e-06
8.5365957e-07
4.0678053e-07
1.5864095e-07
5.4306123e-08
1.6779727e-08
4.7627078e-09
1.2438536e-09
2.9444084e-10
6.1140547e-11
1.0558295e-11
1.4402663e-12
2.193004e-13
1.3172816e-13
1.3996895e-13
0.00091177122
0.00026586816
0.00016310404
0.00010977782
0.00011496431
0.00011077967
9.0637757e-05
6.9302088e-05
5.0845086e-05
3.9185223e-05
2.3761738e-05
1.0930259e-05
7.0787177e-06
4.4604751e-06
2.5531703e-06
1.4996909e-06
8.5054203e-07
4.0495456e-07
1.578668e-07
5.4027775e-08
1.6691689e-08
4.7375304e-09
1.2372831e-09
2.9289262e-10
6.0821194e-11
1.0503763e-11
1.4331581e-12
2.1851823e-13
1.3143178e-13
1.3965002e-13
0.00091354976
0.00026607566
0.00016336143
0.00010979562
0.00011480995
0.00011064625
9.0521785e-05
6.9194297e-05
5.0747025e-05
3.9093186e-05
2.3700544e-05
1.0898784e-05
7.0613831e-06
4.4449123e-06
2.5443494e-06
1.4945032e-06
8.4743803e-07
4.0313783e-07
1.5709693e-07
5.3751066e-08
1.6604185e-08
4.7125084e-09
1.2307533e-09
2.9135397e-10
6.0503805e-11
1.0449563e-11
1.4260923e-12
2.1774008e-13
1.3113645e-13
1.393323e-13
0.00091532333
0.00026627481
0.00016361552
0.00010981556
0.00011465661
0.00011051313
9.0405791e-05
6.9086484e-05
5.0649064e-05
3.9001338e-05
2.3639436e-05
1.0867313e-05
7.0441014e-06
4.429419e-06
2.5355668e-06
1.4893358e-06
8.4434632e-07
4.0132954e-07
1.5633088e-07
5.3475782e-08
1.6517137e-08
4.6876153e-09
1.2242566e-09
2.8982294e-10
6.0187956e-11
1.039562e-11
1.4190585e-12
2.1696471e-13
1.3084164e-13
1.3901523e-13
0.00091709266
0.00026646488
0.0001638663
0.00010983763
0.00011450429
0.00011038036
9.0289755e-05
6.8978656e-05
5.0551225e-05
3.8909701e-05
2.3578416e-05
1.083584e-05
7.0268741e-06
4.4139955e-06
2.5268231e-06
1.4841897e-06
8.412677e-07
3.9953031e-07
1.5556904e-07
5.3202114e-08
1.6430616e-08
4.662875e-09
1.2177998e-09
2.883013e-10
5.9874032e-11
1.0342002e-11
1.4120661e-12
2.1619306e-13
1.3054762e-13
1.3869909e-13
0.00091885848
0.00026664572
0.00016411371
0.00010986185
0.00011435298
0.00011024799
9.0173686e-05
6.887082e-05
5.0453515e-05
3.8818279e-05
2.351749e-05
1.0804363e-05
7.0097025e-06
4.398641e-06
2.5181169e-06
1.4790636e-06
8.3820122e-07
3.9773949e-07
1.5481107e-07
5.2929899e-08
1.6344562e-08
4.6382682e-09
1.2113775e-09
2.8678766e-10
5.956173e-11
1.0288656e-11
1.4051072e-12
2.1542388e-13
1.3025361e-13
1.3838306e-13
0.00092062155
0.00026681732
0.00016435752
0.00010988824
0.0001142027
0.00011011582
9.0057562e-05
6.8763054e-05
5.0355928e-05
3.8727029e-05
2.3456658e-05
1.0772966e-05
6.992588e-06
4.3833563e-06
2.5094495e-06
1.4739587e-06
8.3514771e-07
3.9595741e-07
1.5405717e-07
5.265924e-08
1.6259016e-08
4.6138087e-09
1.2049938e-09
2.8528311e-10
5.9251293e-11
1.0235625e-11
1.3981886e-12
2.1465846e-13
1.2996052e-13
1.380681e-13
0.00092238263
0.00026697964
0.00016459768
0.0001099167
0.00011405344
0.0001099836
8.9941535e-05
6.8655409e-05
5.025847e-05
3.8635945e-05
2.3395919e-05
1.0741661e-05
6.9755309e-06
4.3681402e-06
2.5008195e-06
1.4688738e-06
8.3210611e-07
3.9418331e-07
1.5330688e-07
5.2389926e-08
1.6173898e-08
4.5894705e-09
1.1986412e-09
2.8378571e-10
5.8942301e-11
1.0182835e-11
1.3913e-12
2.1389566e-13
1.2966793e-13
1.3775376e-13
0.00092414252
0.0002671328
0.00016483425
0.00010994721
0.0001139052
0.00010985133
8.9825608e-05
6.8547887e-05
5.0161153e-05
3.8545039e-05
2.3335279e-05
1.0710454e-05
6.958532e-06
4.3529929e-06
2.4922281e-06
1.4638099e-06
8.2907757e-07
3.9241806e-07
1.5256072e-07
5.2122183e-08
1.6089294e-08
4.5652811e-09
1.1923275e-09
2.8229748e-10
5.863519e-11
1.0130364e-11
1.3844521e-12
2.131366e-13
1.2937622e-13
1.3744043e-13
0.00092590201
0.00026727697
0.00016506702
0.00010997979
0.00011375801
0.00010971899
8.9709775e-05
6.8440493e-05
5.0063977e-05
3.8454313e-05
2.327474e-05
1.067935e-05
6.9415921e-06
4.337914e-06
2.4836745e-06
1.4587665e-06
8.260616e-07
3.9066123e-07
1.5181841e-07
5.1855883e-08
1.6005153e-08
4.5412242e-09
1.1860481e-09
2.808172e-10
5.8329694e-11
1.0078163e-11
1.3776377e-12
2.123801e-13
1.2908461e-13
1.371273e-13
0.00092766191
0.00026741237
0.00016529581
0.00011001434
0.00011361185
0.00010958661
8.9594044e-05
6.8333225e-05
4.9966934e-05
3.8363764e-05
2.3214305e-05
1.064836e-05
6.9247116e-06
4.3229051e-06
2.4751599e-06
1.4537446e-06
8.2305912e-07
3.8891335e-07
1.5108027e-07
5.1591167e-08
1.592153e-08
4.5173176e-09
1.1798081e-09
2.793462e-10
5.8026107e-11
1.0026286e-11
1.3708648e-12
2.1162758e-13
1.2879408e-13
1.368154e-13
0.00092942304
0.00026753919
0.00016552068
0.00011005083
0.00011346673
0.00010945417
8.947841e-05
6.8226086e-05
4.9870034e-05
3.8273393e-05
2.3153977e-05
1.061748e-05
6.9078901e-06
4.3079649e-06
2.466683e-06
1.4487429e-06
8.2006899e-07
3.8717363e-07
1.5034582e-07
5.1327817e-08
1.5838342e-08
4.4935341e-09
1.1735996e-09
2.7788248e-10
5.7723986e-11
9.9746526e-12