/*--------------------------------*- C++ -*----------------------------------*\
| =========                 |                                                 |
| \\      /  F ield         | OpenFOAM: The Open Source CFD Toolbox           |
|  \\    /   O peration     | Version:  v2012                                 |
|   \\  /    A nd           | Website:  www.openfoam.com                      |
|    \\/     M anipulation  |                                                 |
\*---------------------------------------------------------------------------*/
FoamFile
{
    version     2.0;
    format      ascii;
    class       volScalarField;
    location    "550";
    object      k;
}
// * * * * * * * * * * * * * * * * * * * * * * * * * * * * * * * * * * * * * //

dimensions      [0 2 -2 0 0 0 0];


internalField   nonuniform List<scalar> 
24000
(
0.10562672
0.12351359
0.15735179
0.27152364
0.73883544
1.6723007
2.6720297
3.296023
3.2258224
2.5834946
1.7579447
1.5523937
2.3127622
3.0441284
3.0674477
2.5786854
1.8672571
1.1698956
0.64527327
0.32699428
0.15653735
0.071579193
0.031201054
0.012808922
0.0048439796
0.0016314187
0.00047799067
0.00017402086
0.00033877357
0.0024213075
0.10567752
0.12350783
0.15717277
0.27019657
0.73329134
1.6620302
2.6593565
3.2836669
3.2167056
2.5781352
1.7548948
1.5487731
2.3054817
3.0334652
3.0571115
2.5701734
1.8610762
1.1659452
0.64308534
0.32590211
0.15602741
0.07135197
0.031104514
0.012770303
0.0048297924
0.0016268637
0.00047691451
0.00017421871
0.00034034401
0.0024320483
0.1057374
0.12350766
0.15700921
0.26904866
0.72880346
1.6541243
2.6495178
3.2741827
3.2093859
2.5727936
1.7508613
1.5448627
2.2988812
3.0234455
3.0466297
2.5611377
1.854356
1.1616174
0.64071377
0.32473348
0.15548794
0.071114328
0.031004527
0.012730548
0.0048151765
0.0016220571
0.00047552221
0.00017368462
0.00033925792
0.0024245189
0.10579594
0.12350762
0.15685087
0.26793341
0.72443076
1.6461899
2.6394899
3.2644961
3.2015908
2.5668995
1.7464475
1.5408048
2.2926827
3.01376
3.0362049
2.551971
1.8474148
1.1570247
0.63810963
0.32340154
0.15485062
0.070824218
0.030878825
0.012679292
0.0047959559
0.00161569
0.0004738022
0.0001734112
0.00033947281
0.0024260131
0.1058533
0.12350703
0.15669318
0.26683152
0.72010764
1.6382571
2.6296212
3.2548889
3.1936868
2.5607625
1.7417742
1.5366817
2.2868755
3.0044811
3.0258837
2.542673
1.84027
1.1522773
0.63542871
0.32204185
0.15420625
0.070533596
0.030753919
0.012628699
0.0047770709
0.0016094289
0.00047204767
0.00017293977
0.00033890959
0.0024220257
0.10590964
0.12350612
0.15653691
0.26574288
0.71582591
1.6303473
2.6198373
3.2453006
3.1856869
2.5544617
1.7369383
1.5325079
2.2813303
2.9954829
3.0156387
2.5332622
1.8329097
1.1472956
0.63257034
0.32057313
0.15350305
0.070213923
0.030615686
0.012572443
0.0047559964
0.0016024281
0.00047009714
0.00017245861
0.00033846028
0.0024188395
0.10596507
0.12350479
0.15638168
0.26466548
0.71157806
1.6224633
2.6101138
3.2357353
3.1776409
2.5480632
1.7320014
1.5283112
2.2759684
2.9866809
3.0054583
2.5238029
1.8254538
1.142224
0.62965297
0.31907254
0.15278438
0.069887216
0.030474419
0.012514951
0.0047344552
0.001595267
0.00046809224
0.00017193854
0.00033789478
0.0024148278
0.10601962
0.12350299
0.1562273
0.26359826
0.70736021
1.6146033
2.6004346
3.2261904
3.1695702
2.5416048
1.7270026
1.5241018
2.2707322
2.9780173
2.99533
2.514317
1.8179317
1.1370817
0.62668423
0.31754153
0.15204978
0.069552814
0.030329681
0.012456
0.0047123536
0.0015879153
0.00046603224
0.00017140181
0.00033730466
0.0024106413
0.10607331
0.12350061
0.15607362
0.26254032
0.70316936
1.6067655
2.59079
3.2166634
3.1614867
2.5351101
1.7219667
1.519888
2.2655842
2.9694529
2.9852464
2.5048254
1.810379
1.1319058
0.62369126
0.31599639
0.15130787
0.069214917
0.030183376
0.012396394
0.0046899995
0.0015804768
0.00046394545
0.0001708525
0.00033668432
0.0024062399
0.10612612
0.12349761
0.1559205
0.26149095
0.69900344
1.5989485
2.5811732
3.2071524
3.1533978
2.528594
1.7169096
1.5156743
2.2604996
2.9609617
2.9752018
2.4953389
1.8028132
1.1267124
0.62068474
0.314443
0.15056155
0.068874867
0.030036088
0.012336369
0.0046674829
0.0015729821
0.00046184131
0.00017029551
0.00033604641
0.0024017139
0.10617803
0.12349391
0.15576783
0.2604496
0.6948609
1.5911513
2.5715799
3.1976553
3.1453077
2.5220662
1.7118418
1.5114638
2.2554614
2.9525264
2.965192
2.4858652
1.7952473
1.1215144
0.61767382
0.31288667
0.14981357
0.068533971
0.029888402
0.012276172
0.0046448977
0.001565463
0.00045972909
0.0001697338
0.00033539573
0.0023970972
0.10622899
0.12348948
0.15561552
0.2594158
0.69074063
1.5833731
2.5620066
3.1881711
3.1372192
2.5155329
1.7067701
1.5072584
2.2504584
2.9441351
2.955214
2.4764088
1.7876889
1.1163191
0.61466343
0.31133013
0.1490653
0.068192866
0.029740597
0.012215917
0.0046222873
0.0015579341
0.00045761311
0.000169169
0.00033473557
0.0023924134
0.10627896
0.12348427
0.15546349
0.25838918
0.68664178
1.5756132
2.5524509
3.1786983
3.1291342
2.508998
1.7016988
1.5030592
2.2454829
2.9357794
2.9452656
2.4669727
1.7801434
1.1111319
0.61165738
0.30977562
0.14831789
0.0678521
0.029592921
0.012155706
0.0045996913
0.001550409
0.00045549743
0.00016860277
0.00033406952
0.0023876882
0.10632789
0.12347826
0.15531169
0.25736944
0.68256368
1.5678714
2.5429112
3.1692362
3.1210536
2.5024641
1.6966313
1.4988671
2.2405295
2.9274538
2.935345
2.4575587
1.7726142
1.1059561
0.60865784
0.30822433
0.14757193
0.067511949
0.029445491
0.012095589
0.0045771273
0.0015428936
0.00045338375
0.00016803579
0.00033339909
0.0023829322
0.10637575
0.1234714
0.15516004
0.25635631
0.67850583
1.5601472
2.5333859
3.1597839
3.1129781
2.4959335
1.6915696
1.4946825
2.2355939
2.9191538
2.9254512
2.4481683
1.7651042
1.1007946
0.60566699
0.30667757
0.1468281
0.067172744
0.029298458
0.012035629
0.0045546203
0.0015353963
0.00045127462
0.00016746897
0.00033272593
0.0023781573
0.10642248
0.12346368
0.1550085
0.25534958
0.67446781
1.5524403
2.523874
3.1503409
3.104908
2.4894074
1.6865151
1.4905058
2.2306736
2.9108765
2.9155831
2.4388024
1.7576149
1.0956487
0.60268566
0.30513575
0.1460866
0.066834566
0.029151856
0.011975838
0.0045321745
0.0015279184
0.00044917039
0.0001669024
0.00033205016
0.0023733642
0.10646805
0.12345506
0.15485705
0.25434905
0.67044926
1.5447505
2.5143746
3.1409066
3.0968437
2.4828868
1.6814688
1.4863371
2.2257662
2.9026197
2.9057402
2.4294617
1.7501476
1.09052
0.59971491
0.30359951
0.14534777
0.066497582
0.02900576
0.011916249
0.0045098026
0.0015204646
0.00044707249
0.00016633682
0.00033137367
0.0023685665
0.10651242
0.12344553
0.15470564
0.25335457
0.6664499
1.5370778
2.5048872
3.1314806
3.0887853
2.4763721
1.6764317
1.4821766
2.2208704
2.8943819
2.8959219
2.4201465
1.7427029
1.0854089
0.59675501
0.30206896
0.14461163
0.066161797
0.028860167
0.011856859
0.004487503
0.0015130339
0.00044498064
0.00016577217
0.00033069647
0.0023637641
0.10655555
0.12343507
0.15455426
0.25236601
0.66246948
1.5294219
2.4954112
3.1220626
3.0807328
2.4698636
1.6714044
1.4780244
2.2159849
2.8861616
2.8861279
2.4108574
1.7352822
1.0803167
0.59380695
0.30054471
0.14387853
0.065827386
0.028715162
0.011797704
0.0044652903
0.0015056315
0.00044289639
0.00016520897
0.00033001941
0.0023589634
0.10659741
0.12342366
0.15440287
0.25138323
0.6585078
1.5217827
2.485946
3.1126521
3.072686
2.4633616
1.6663884
1.4738806
2.2111087
2.8779581
2.8763579
2.4015946
1.7278855
1.0752437
0.59087075
0.29902672
0.14314842
0.065494314
0.028570725
0.011738775
0.0044431603
0.0014982559
0.00044081924
0.00016464698
0.00032934197
0.0023541603
0.10663796
0.12341128
0.15425147
0.25040613
0.65456462
1.5141601
2.4764914
3.103249
3.0646448
2.4568662
1.6613857
1.4697452
2.2062412
2.8697705
2.8666117
2.3923584
1.7205136
1.0701904
0.58794697
0.29751536
0.14242153
0.065162698
0.028426911
0.011680097
0.0044211233
0.0014909108
0.00043875036
0.00016408676
0.00032866546
0.0023493643
0.10667719
0.12339794
0.15410002
0.24943463
0.65063981
1.5065541
2.4670469
3.0938529
3.0566091
2.4503773
1.6563984
1.4656184
2.2013821
2.8615988
2.8568892
2.3831488
1.7131662
1.0651564
0.58503517
0.29601033
0.14169765
0.064832429
0.028283667
0.011621646
0.0043991689
0.0014835923
0.00043668861
0.00016352794
0.00032798934
0.0023445716
0.10671505
0.1233836
0.15394852
0.24846862
0.64673323
1.4989647
2.4576124
3.0844637
3.0485789
2.4438952
1.6514229
1.4615
2.1965309
2.8534425
2.8471906
2.3739662
1.7058441
1.0601427
0.58213611
0.29451211
0.14097708
0.064503659
0.028141067
0.011563454
0.0043773105
0.0014763053
0.00043463539
0.00016297095
0.00032731416
0.0023397861
0.10675153
0.12336827
0.15379696
0.24750804
0.64284473
1.4913917
2.4481875
3.0750812
3.0405541
2.4374199
1.6464603
1.4573903
2.1916876
2.8453015
2.8375159
2.3648109
1.6985472
1.055149
0.57924948
0.29302046
0.14025965
0.0641763
0.027999065
0.0115055
0.0043555396
0.0014690467
0.00043258976
0.00016241537
0.00032663908
0.0023350017
0.10678661
0.12335194
0.15364533
0.24655282
0.63897417
1.4838352
2.4387721
3.0657051
3.0325344
2.4309514
1.6415111
1.4532892
2.1868518
2.8371757
2.8278652
2.355683
1.691276
1.0501757
0.57637575
0.29153573
0.13954557
0.063850465
0.027857717
0.01144781
0.0043338664
0.0014618201
0.00043055288
0.00016186181
0.00032596556
0.0023302289
0.10682025
0.12333459
0.15349362
0.24560289
0.63512148
1.4762953
2.4293661
3.0563355
3.0245199
2.4244896
1.6365735
1.4491966
2.1820237
2.8290652
2.8182387
2.3465827
1.6840303
1.0452225
0.57351442
0.29005752
0.13883461
0.063526021
0.027716958
0.011390354
0.0043122784
0.001454621
0.00042852339
0.00016130983
0.00032529293
0.002325463
0.10685245
0.12331622
0.15334183
0.24465821
0.63128656
1.4687718
2.4199693
3.0469721
3.0165103
2.4180345
1.6316478
1.4451125
2.177203
2.82097
2.8086367
2.3375104
1.6768109
1.0402903
0.57066631
0.28858641
0.1381271
0.063203145
0.027576872
0.011333169
0.0042907911
0.001447455
0.00042650292
0.00016075988
0.00032462176
0.0023207079
0.10688319
0.12329684
0.15318996
0.24371871
0.62746929
1.4612649
2.4105816
3.037615
3.0085057
2.411586
1.626734
1.4410369
2.1723898
2.8128902
2.7990591
2.3284664
1.6696177
1.0353788
0.56783107
0.28712211
0.13742284
0.062881734
0.027437408
0.011276233
0.0042693951
0.0014403186
0.00042449041
0.0001602115
0.00032395096
0.0023159557
0.10691244
0.12327643
0.153038
0.24278436
0.6236696
1.4537745
2.4012029
3.0282639
3.0005058
2.4051439
1.6218312
1.4369697
2.1675838
2.8048256
2.7895062
2.3194507
1.6624512
1.0304884
0.56500911
0.28566492
0.13672205
0.062561897
0.027298623
0.011219571
0.0042481009
0.0014332158
0.00042248709
0.00015966525
0.00032328187
0.0023112162
0.10694021
0.12325499
0.15288596
0.24185509
0.61988743
1.4463008
2.3918331
3.0189189
2.9925106
2.3987082
1.6169394
1.4329109
2.1627852
2.7967766
2.779978
2.3104631
1.6553107
1.0256186
0.56219973
0.28421435
0.13602441
0.062243469
0.027160434
0.011163146
0.0042268935
0.001426141
0.00042049135
0.00015912066
0.00032261383
0.0023064846
0.10696648
0.12323253
0.15273383
0.24093089
0.6161227
1.4388437
2.3824722
3.0095799
2.98452
2.3922786
1.6120583
1.4288604
2.1579941
2.7887432
2.7704747
2.3015043
1.6481971
1.02077
0.55940372
0.28277095
0.13533025
0.061926632
0.02702293
0.011106998
0.0042057891
0.0014191002
0.00041850487
0.00015857816
0.00032194724
0.0023017636
0.10699124
0.12320905
0.15258162
0.24001171
0.61237533
1.4314034
2.3731201
3.0002469
2.976534
2.3858551
1.6071874
1.4248181
2.1532106
2.7807255
2.7609966
2.2925741
1.6411099
1.0159422
0.55662053
0.2813343
0.13463933
0.061611246
0.026886043
0.011051096
0.004184775
0.0014120886
0.00041652624
0.00015803713
0.00032128074
0.0022970437
0.10701448
0.12318453
0.15242933
0.23909751
0.6086453
1.4239799
2.3637769
2.9909199
2.9685525
2.3794377
1.6023267
1.4207841
2.1484346
2.7727238
2.7515438
2.2836728
1.6340495
1.0111355
0.55385055
0.27990473
0.13395185
0.061297427
0.026749831
0.010995468
0.0041638624
0.0014051105
0.00041455681
0.00015749829
0.00032061613
0.0022923376
0.10703621
0.123159
0.15227697
0.23818827
0.60493258
1.4165733
2.3544424
2.9815988
2.9605754
2.3730264
1.5974758
1.4167583
2.1436664
2.7647385
2.7421166
2.2748004
1.6270156
1.0063493
0.55109313
0.27848171
0.13326748
0.060984996
0.026614204
0.010940071
0.0041430343
0.0013981596
0.00041259471
0.00015696107
0.00031995264
0.0022876399
0.1070564
0.12313244
0.15212453
0.23728396
0.60123707
1.4091838
2.3451166
2.9722837
2.9526027
2.3666211
1.5926344
1.4127405
2.138906
2.7567695
2.7327153
2.2659577
1.6200092
1.0015848
0.54834926
0.27706597
0.13258666
0.060674179
0.026479274
0.010884956
0.004122311
0.0013912434
0.0004106421
0.00015642605
0.00031929087
0.0022829549
0.10707507
0.12310487
0.15197204
0.23638455
0.59755875
1.4018114
2.3357997
2.9629746
2.9446344
2.3602217
1.5878026
1.4087308
2.1341534
2.7488172
2.7233403
2.2571447
1.61303
0.99684149
0.54561846
0.2756571
0.13190912
0.06036484
0.026344971
0.010830092
0.0041016798
0.001384357
0.00040869751
0.00015589258
0.00031862937
0.002278272
0.1070922
0.12307629
0.15181948
0.23549001
0.5938976
1.3944563
2.3264915
2.9536715
2.9366705
2.3538284
1.5829799
1.404729
2.1294087
2.7408817
2.7139916
2.2483616
1.6060784
0.99211993
0.54290126
0.27425554
0.13123515
0.060057132
0.026211375
0.010775514
0.0040811557
0.0013775059
0.00040676268
0.00015536146
0.00031796996
0.0022736044
0.10710781
0.1230467
0.15166686
0.23460033
0.59025356
1.3871186
2.3171921
2.9443746
2.9287109
2.3474414
1.5781662
1.400735
2.1246721
2.7329634
2.7046696
2.2396083
1.5991539
0.98741904
0.54019667
0.27286055
0.13056429
0.059750813
0.026078364
0.010721169
0.0040607162
0.0013706823
0.00040483522
0.00015483194
0.00031731152
0.002268944
0.10712189
0.1230161
0.15151419
0.23371547
0.5866266
1.3797985
2.3079016
2.9350837
2.9207558
2.3410604
1.5733612
1.3967489
2.1199436
2.7250623
2.6953743
2.2308852
1.5922572
0.98274
0.53750572
0.27147288
0.129897
0.059446124
0.025946059
0.01066711
0.0040403836
0.0013638939
0.00040291746
0.00015430464
0.00031665468
0.0022642953
0.10713444
0.12298451
0.15136147
0.23283543
0.58301673
1.3724961
2.29862
2.9257992
2.9128052
2.3346855
1.5685649
1.3927706
2.1152234
2.7171786
2.6861059
2.2221921
1.585388
0.9780822
0.53482776
0.27009202
0.12923297
0.059142896
0.025814374
0.010613298
0.0040201418
0.001357135
0.00040100759
0.00015377878
0.00031599774
0.0022596461
0.10714547
0.12295192
0.1512087
0.23196017
0.57942392
1.3652116
2.2893474
2.916521
2.9048591
2.3283166
1.5637771
1.3888
2.1105115
2.7093124
2.6768644
2.2135295
1.5785467
0.97344613
0.53216331
0.26871841
0.12857248
0.058841291
0.025683393
0.010559774
0.0040000073
0.0013504116
0.00039910752
0.00015325527
0.00031534288
0.0022550121
0.10715499
0.12291835
0.15105589
0.23108969
0.57584814
1.3579452
2.2800839
2.9072493
2.8969176
2.3219537
1.5589976
1.384837
2.1058081
2.7014641
2.6676501
2.204897
1.5717325
0.96883071
0.52951134
0.26735127
0.12791504
0.058541041
0.025552982
0.010506474
0.0039799546
0.0013437146
0.00039721456
0.00015273333
0.00031468904
0.0022503857
0.107163
0.1228838
0.15090304
0.23022396
0.57228939
1.350697
2.2708296
2.8979842
2.8889807
2.3155967
1.5542264
1.3808817
2.1011132
2.6936338
2.6584634
2.1962955
1.5649467
0.96423737
0.5268731
0.26599148
0.12726119
0.058242437
0.025423283
0.010453464
0.0039600104
0.0013370535
0.00039533149
0.00015221369
0.000314037
0.0022457723
0.10716951
0.12284827
0.15075017
0.22936297
0.56874766
1.3434673
2.2615845
2.8887257
2.8810485
2.3092457
1.5494634
1.376934
2.0964269
2.6858217
2.6493045
2.1877249
1.5581889
0.95966549
0.52424796
0.26463856
0.12661062
0.057945303
0.02529421
0.010400704
0.0039401579
0.0013304222
0.00039345642
0.00015169554
0.00031338496
0.0022411591
0.10717452
0.12281178
0.15059726
0.22850669
0.56522292
1.3362563
2.2523487
2.8794741
2.8731212
2.3029011
1.5447085
1.3729939
2.0917492
2.678028
2.6401735
2.1791854
1.5514594
0.9551156
0.52163651
0.263293
0.12596366
0.057649825
0.025165856
0.010348238
0.0039204154
0.0013238274
0.00039159146
0.00015117983
0.00031273511
0.0022365619
0.10717804
0.12277432
0.15044433
0.22765512
0.56171515
1.3290641
2.2431224
2.8702294
2.8651986
2.296563
1.5399617
1.3690613
2.0870805
2.6702532
2.6310707
2.1706767
1.5447574
0.95058652
0.51903762
0.26195395
0.12531976
0.057355713
0.025038078
0.010295999
0.003900756
0.0013172595
0.00038973373
0.00015066569
0.00031208622
0.0022319717
0.10718009
0.12273592
0.15029136
0.22680822
0.55822435
1.321891
2.2339056
2.8609918
2.8572811
2.2902314
1.5352227
1.3651362
2.0824209
2.6624971
2.6219962
2.1621993
1.5380838
0.94607948
0.51645242
0.26062223
0.12467945
0.057063244
0.024911013
0.010244051
0.0038812054
0.0013107276
0.00038788593
0.00015015383
0.00031143897
0.0022273934
0.10718067
0.12269656
0.15013836
0.22596598
0.55475051
1.3147373
2.2246985
2.8517614
2.8493687
2.2839069
1.5304916
1.3612185
2.0777706
2.6547604
2.61295
2.1537529
1.5314379
0.94159354
0.51388005
0.25929722
0.12404235
0.056772216
0.024784561
0.010192348
0.0038617449
0.001304225
0.00038604599
0.00014964337
0.00031079143
0.0022228131
0.10717979
0.12265625
0.14998534
0.22512838
0.55129362
1.3076031
2.2155012
2.8425385
2.8414616
2.2775894
1.5257682
1.3573082
2.0731296
2.6470428
2.6039321
2.1453377
1.5248202
0.93712916
0.51132103
0.25797937
0.12340875
0.056482797
0.024658808
0.010140931
0.0038423917
0.001297758
0.00038421591
0.00014913526
0.00031014592
0.0022182476
0.10717747
0.12261501
0.14983228
0.22429541
0.54785367
1.3004887
2.2063139
2.8333232
2.83356
2.2712789
1.5210524
1.3534054
2.0684983
2.6393449
2.5949428
2.1369534
1.5182299
0.93268534
0.50877434
0.25666787
0.12277814
0.056194705
0.024533615
0.010089735
0.0038231189
0.0012913171
0.00038239287
0.00014862871
0.00030950145
0.0022136897
0.10717371
0.12257283
0.14967919
0.22346702
0.54443064
1.2933944
2.1971366
2.8241156
2.8256639
2.2649754
1.5163443
1.3495101
2.0638765
2.6316664
2.5859823
2.1286008
1.5116684
0.92826368
0.50624133
0.2553637
0.12215111
0.055908255
0.024409134
0.010038829
0.0038039551
0.0012849123
0.0003805798
0.0001481245
0.0003088588
0.002209145
0.10716853
0.12252973
0.14952607
0.22264322
0.54102452
1.2863204
2.1879696
2.814916
2.8177734
2.2586789
1.5116438
1.3456222
2.0592645
2.6240078
2.5770507
2.1202799
1.5051352
0.92386345
0.50372132
0.25406633
0.12152733
0.055623267
0.024285276
0.0099881732
0.0037848832
0.0012785375
0.0003787748
0.00014762179
0.00030821613
0.0022046003
0.10716194
0.1224857
0.14937291
0.22182397
0.53763529
1.279267
2.1788129
2.8057245
2.8098887
2.2523898
1.5069511
1.3417418
2.0546621
2.616369
2.5681482
2.1119908
1.4986305
0.91948514
0.50121487
0.25277622
0.12090711
0.055339917
0.024162132
0.0099378091
0.0037659209
0.0012721991
0.00037697992
0.00014712151
0.00030757559
0.0022000708
0.10715395
0.12244074
0.1492197
0.22100924
0.5342629
1.2722344
2.1696666
2.7965412
2.80201
2.2461084
1.5022659
1.337869
2.05007
2.6087506
2.559275
2.1037329
1.4921534
0.91512743
0.49872076
0.25149249
0.1202899
0.055057909
0.024039554
0.0098876698
0.0037470409
0.0012658874
0.00037519224
0.0001466228
0.00030693592
0.0021955478
0.10714457
0.12239487
0.14906644
0.220199
0.53090734
1.265223
2.160531
2.7873664
2.7941373
2.239835
1.4975882
1.3340038
2.0454882
2.6011526
2.550431
2.0955068
1.4857046
0.91079144
0.49624005
0.25021593
0.1196762
0.05477751
0.023917676
0.009837816
0.0037282679
0.0012596112
0.00037341438
0.00014612633
0.00030629786
0.0021910364
0.10713381
0.12234808
0.14891312
0.21939323
0.52756858
1.2582329
2.1514061
2.7782001
2.7862709
2.2335699
1.492918
1.3301461
2.040917
2.5935753
2.5416164
2.087312
1.4792836
0.90647637
0.49377199
0.24894599
0.11906565
0.054498532
0.023796404
0.0097882053
0.0037095847
0.0012533644
0.0003716444
0.00014563129
0.00030565959
0.0021865235
0.1071217
0.12230037
0.14875972
0.21859189
0.52424657
1.2512646
2.1422919
2.7690426
2.7784109
2.2273134
1.488255
1.3262962
2.0363566
2.5860187
2.5328309
2.0791487
1.4728905
0.90218252
0.49131699
0.24768302
0.11845852
0.054221122
0.023675814
0.0097388734
0.003691006
0.0012471523
0.00036988407
0.00014513853
0.00030502314
0.0021820238
0.10710823
0.12225175
0.14860624
0.21779494
0.52094126
1.2443182
2.1331888
2.7598941
2.7705574
2.2210659
1.4835992
1.322454
2.0318073
2.5784833
2.5240749
2.0710164
1.4665244
0.89790875
0.48887397
0.24642622
0.1178543
0.053945008
0.023555772
0.0096897593
0.0036725073
0.0012409661
0.00036813076
0.00014464731
0.00030438767
0.0021775313
0.10709342
0.12220222
0.14845266
0.21700237
0.51765263
1.2373941
2.1240968
2.7507546
2.7627106
2.2148273
1.4789504
1.3186198
2.0272691
2.5709688
2.5153483
2.0629159
1.4601868
0.89365654
0.4864442
0.2451765
0.11725353
0.053670481
0.02343642
0.0096409269
0.0036541143
0.0012348151
0.00036638719
0.00014415836
0.0003037539
0.0021730509
0.10707728
0.12215178
0.14829897
0.21621411
0.51438061
1.2304925
2.1150159
2.7416244
2.7548706
2.2085978
1.4743087
1.3147936
2.0227423
2.5634755
2.5066514
2.054847
1.4538771
0.8894253
0.48402711
0.2439334
0.11665594
0.053397384
0.023317679
0.00959234
0.003635812
0.0012286938
0.00036465163
0.00014367093
0.00030312017
0.0021685709
0.10705983
0.12210042
0.14814516
0.21543014
0.51112514
1.2236139
2.1059465
2.7325035
2.7470377
2.2023777
1.4696739
1.3109756
2.0182267
2.5560033
2.497984
2.0468099
1.4475957
0.8852155
0.48162318
0.24269734
0.11606178
0.053125869
0.023199628
0.009544035
0.0036176157
0.0012226077
0.00036292587
0.00014318585
0.00030248848
0.0021641055
0.10704107
0.12204814
0.14799121
0.21465042
0.50788615
1.2167585
2.0968884
2.7233922
2.7392117
2.1961674
1.4650457
1.3071661
2.0137228
2.5485526
2.4893465
2.0388042
1.4413416
0.88102599
0.47923138
0.24146755
0.1154706
0.052855683
0.023082139
0.0094959548
0.003599502
0.0012165486
0.00036120743
0.00014270238
0.00030185775
0.002159647
0.10702102
0.12199495
0.14783712
0.21387489
0.50466357
1.2099266
2.0878418
2.7142905
2.7313929
2.1899671
1.460424
1.3033653
2.0092306
2.5411234
2.4807386
2.0308301
1.4351156
0.87685772
0.4768526
0.2402447
0.1148828
0.052587051
0.022965327
0.0094481508
0.003581492
0.0012105239
0.00035949852
0.00014222108
0.00030122847
0.002155199
0.10699969
0.12194084
0.14768285
0.21310351
0.50145729
1.2031184
2.0788067
2.7051985
2.7235814
2.1837773
1.4558086
1.2995737
2.0047505
2.533716
2.4721604
2.0228872
1.4289167
0.87270974
0.47448603
0.23902821
0.11429805
0.052319791
0.022849101
0.0094005827
0.0035635693
0.0012045278
0.00035779731
0.00014174116
0.00030059894
0.0021507492
0.10697708
0.1218858
0.14752838
0.21233624
0.49826723
1.196334
2.0697839
2.6961162
2.7157773
2.1775956
1.4512023
1.2957929
2.0002826
2.5263304
2.4636118
2.0149753
1.4227452
0.86858231
0.47213202
0.23781842
0.11371656
0.052054034
0.02273353
0.009353282
0.003545747
0.0011985651
0.00035610538
0.00014126345
0.00029997119
0.0021463122
0.10695321
0.12182984
0.1473737
0.21157301
0.49509333
1.1895711
2.0607769
2.6870438
2.7079807
2.1714218
1.4466057
1.2920233
1.9958271
2.5189668
2.4550928
2.0070942
1.4166001
0.86447429
0.46978953
0.23661456
0.11313788
0.051789525
0.022618487
0.009306192
0.0035280022
0.0011926276
0.00035442031
0.00014078723
0.00029934434
0.0021418816
0.10692809
0.12177295
0.14721878
0.21081379
0.49193553
1.1828298
2.051786
2.6779815
2.7001917
2.1652558
1.442019
1.2882657
1.991384
2.511625
2.4466035
1.9992445
1.4104825
0.86038699
0.4674597
0.23541744
0.11256249
0.051526529
0.022504103
0.0092593715
0.0035103587
0.0011867239
0.0003527446
0.00014031319
0.00029871911
0.0021374627
0.10690172
0.12171511
0.1470636
0.21005852
0.48879377
1.1761103
2.0428113
2.6689294
2.6924107
2.1590978
1.4374423
1.2845213
1.9869533
2.5043053
2.438144
1.991426
1.404392
0.85631987
0.465142
0.23422665
0.11199012
0.051264897
0.022390302
0.0092127857
0.0034928021
0.0011808487
0.00035107659
0.0001398406
0.00029809385
0.0021330435
0.10687411
0.12165633
0.14690815
0.20930714
0.485668
1.1694127
2.0338528
2.6598876
2.6846376
2.1529478
1.432876
1.2807931
1.9825352
2.4970074
2.4297143
1.9836388
1.3983292
0.85227354
0.46283701
0.23304264
0.11142108
0.051004796
0.022277169
0.0091664738
0.0034753485
0.0011750078
0.00034941816
0.00013937034
0.00029747067
0.0021286391
0.10684527
0.1215966
0.14675238
0.20855959
0.48255813
1.1627369
2.0249108
2.6508561
2.6768725
2.1468058
1.4283201
1.27708
1.9781298
2.4897318
2.4213144
1.9758827
1.3922933
0.8482469
0.46054371
0.23186466
0.11085488
0.050745966
0.022164576
0.0091203766
0.0034579739
0.0011691927
0.00034776672
0.0001389016
0.00029684837
0.0021242411
0.10681521
0.12153591
0.14659629
0.20781582
0.47946408
1.1560833
2.0159852
2.6418351
2.6691156
2.1406721
1.4237749
1.2733817
1.9737371
2.4824782
2.4129444
1.968158
1.3862849
0.84424098
0.45826307
0.23069341
0.11029198
0.050488649
0.022052641
0.0090745491
0.0034407007
0.0011634113
0.00034612464
0.00013843501
0.00029622758
0.0021198538
0.10678394
0.12147425
0.14643983
0.20707577
0.47638578
1.1494517
2.0070763
2.6328246
2.6613669
2.1345468
1.4192404
1.2696995
1.9693576
2.475247
2.4046043
1.9604643
1.3803033
0.84025481
0.45599423
0.2295283
0.109732
0.050232653
0.021941271
0.0090289487
0.0034235116
0.0011576575
0.00034448998
0.00013796974
0.00029560642
0.0021154638
0.10675146
0.12141161
0.14628299
0.20633937
0.47332311
1.1428423
1.9981841
2.6238248
2.6536267
2.1284301
1.4147167
1.266032
1.9649911
2.468038
2.3962938
1.9528016
1.3743487
0.83628876
0.45373766
0.22836973
0.10917523
0.049978133
0.021830546
0.0089836127
0.0034064221
0.0011519369
0.00034286459
0.00013750672
0.00029498723
0.0021110879
0.10671777
0.12134799
0.14612572
0.20560654
0.470276
1.1362551
1.9893087
2.6148354
2.6458948
2.1223222
1.410204
1.2623797
1.960638
2.4608516
2.3880132
1.9451694
1.3684202
0.83234165
0.45149226
0.22721688
0.10862115
0.049724809
0.021720326
0.0089384777
0.0033894064
0.0011462403
0.00034124572
0.0001370451
0.00029436881
0.0021067175
0.10668288
0.12128336
0.145968
0.20487723
0.46724433
1.1296902
1.9804501
2.6058568
2.6381714
2.1162231
1.4057024
1.2587428
1.9562984
2.4536875
2.3797624
1.9375683
1.3625187
0.8284148
0.44925919
0.2260706
0.10807027
0.04947296
0.021610749
0.0088936062
0.0033724898
0.0011405768
0.00033963603
0.00013658563
0.000293752
0.0021023585
0.1066468
0.12121772
0.14580978
0.20415137
0.46422799
1.1231476
1.9716084
2.5968888
2.6304566
2.1101328
1.401212
1.2551211
1.9519721
2.4465459
2.3715415
1.9299981
1.3566438
0.82450751
0.44703781
0.22493038
0.10752229
0.049222417
0.021501731
0.0088489593
0.0033556564
0.0011349405
0.0003380337
0.0001361275
0.00029313494
0.0020979976
0.10660953
0.12115106
0.14565104
0.20342888
0.46122689
1.1166273
1.9627838
2.5879315
2.6227504
2.1040514
1.396733
1.2515147
1.9476593
2.4394266
2.3633503
1.9224589
1.3507958
0.82062033
0.44482867
0.22379671
0.10697752
0.048973354
0.02139336
0.0088045781
0.0033389233
0.0011293377
0.00033644072
0.00013567164
0.0002925199
0.0020936511
0.10657108
0.12108336
0.14549174
0.20270969
0.45824091
1.1101294
1.9539761
2.5789849
2.6150527
2.0979789
1.3922654
1.2479236
1.9433599
2.43233
2.355189
1.9149502
1.3449739
0.81675203
0.44263067
0.22266873
0.10643543
0.048725487
0.021285494
0.008760398
0.0033222639
0.001123759
0.00033485427
0.0001352172
0.00029190566
0.0020893102
0.10653143
0.1210146
0.14533183
0.20199375
0.45526992
1.1036538
1.9451855
2.570049
2.6073638
2.0919154
1.3878094
1.2443477
1.939074
2.425256
2.3470575
1.9074726
1.339179
0.81290395
0.44044497
0.2215473
0.10589654
0.04847909
0.021178269
0.0087164806
0.0033057035
0.0011182132
0.00033327698
0.00013476492
0.00029129312
0.0020849815
0.10649061
0.12094478
0.1451713
0.20128095
0.45231379
1.0972007
1.9364119
2.5611237
2.5996835
2.0858609
1.3833649
1.2407871
1.9348017
2.4182046
2.3389559
1.9000258
1.3334107
0.80907531
0.43827085
0.22043187
0.10536051
0.048233983
0.021071596
0.0086727847
0.003289225
0.0011126943
0.00033170693
0.00013431393
0.00029068022
0.0020806501
0.10644859
0.12087387
0.14501009
0.20057123
0.44937239
1.0907699
1.9276555
2.552209
2.5920118
2.0798156
1.3789321
1.2372417
1.9305428
2.4111758
2.3308842
1.8926099
1.327669
0.80526644
0.43610871
0.21932284
0.10482761
0.047990318
0.020965553
0.0086293477
0.0032728441
0.0011072079
0.00033014598
0.00013386515
0.00029006928
0.0020763325
0.1064054
0.12080186
0.14484816
0.19986452
0.44644558
1.0843616
1.9189161
2.5433048
2.5843488
2.0737795
1.374511
1.2337116
1.9262977
2.4041698
2.3228423
1.8852244
1.321953
0.80147595
0.43395734
0.21821928
0.10429729
0.047747796
0.020859992
0.0085861021
0.0032565334
0.0011017443
0.00032859121
0.00013341771
0.00028945906
0.00207202
0.10636103
0.12072872
0.14468547
0.19916074
0.4435332
1.0779755
1.9101937
2.5344111
2.5766944
2.0677525
1.3701016
1.2301967
1.9220662
2.3971864
2.3148303
1.8778697
1.3162636
0.79770521
0.43181794
0.21712208
0.10377006
0.047506703
0.020755055
0.008543112
0.0032403189
0.0010963129
0.00032704538
0.00013297239
0.0002888505
0.0020677193
0.10631547
0.12065446
0.14452197
0.19845979
0.4406351
1.0716119
1.9014885
2.5255278
2.5690485
2.0617348
1.3657041
1.226697
1.9178482
2.3902256
2.3068482
1.8705457
1.3106004
0.79395361
0.42968991
0.21603079
0.10324566
0.047266876
0.020650659
0.0085003396
0.0032241849
0.0010909078
0.00032550667
0.00013252836
0.00028824172
0.0020634168
0.10626872
0.12057903
0.14435762
0.19776161
0.43775116
1.0652705
1.8928003
2.5166548
2.5614113
2.0557262
1.3613184
1.2232125
1.9136435
2.3832872
2.2988959
1.8632524
1.3049639
0.79022174
0.42757386
0.21494587
0.10272437
0.047028493
0.020546894
0.0084578265
0.0032081489
0.0010855355
0.00032397711
0.00013208657
0.000287635
0.002059129
0.10622079
0.12050243
0.14419236
0.19706611
0.43488119
1.0589514
1.8841291
2.507792
2.5537825
2.049727
1.3569446
1.2197431
1.9094522
2.3763714
2.2909733
1.8559895
1.299353
0.78650832
0.42546861
0.21386647
0.10220569
0.046791264
0.020443617
0.0084155073
0.0031921839
0.0010801862
0.00032245382
0.00013164614
0.00028702897
0.002054846
0.10617166
0.12042462
0.14402614
0.19637322
0.43202505
1.0526546
1.875475
2.4989393
2.5461623
2.0437368
1.3525826
1.2162888
1.9052741
2.3694781
2.2830804
1.8487574
1.2937688
0.78281458
0.42337528
0.21279338
0.10169008
0.046555452
0.020340957
0.0083734412
0.0031763141
0.0010748688
0.00032093936
0.00013120779
0.0002864246
0.0020505747
0.10612135
0.1203456
0.14385893
0.19568286
0.42918259
1.0463799
1.8668378
2.4900967
2.5385505
2.0377559
1.3482325
1.2128495
1.9011091
2.3626072
2.2752171
1.8415558
1.2882105
0.77913982
0.4212932
0.21172613
0.10117726