/*--------------------------------*- C++ -*----------------------------------*\
| =========                 |                                                 |
| \\      /  F ield         | OpenFOAM: The Open Source CFD Toolbox           |
|  \\    /   O peration     | Version:  v2012                                 |
|   \\  /    A nd           | Website:  www.openfoam.com                      |
|    \\/     M anipulation  |                                                 |
\*---------------------------------------------------------------------------*/
FoamFile
{
    version     2.0;
    format      ascii;
    class       volScalarField;
    location    "550";
    object      Ma;
}
// * * * * * * * * * * * * * * * * * * * * * * * * * * * * * * * * * * * * * //

dimensions      [0 0 0 0 0 0 0];


internalField   nonuniform List<scalar> 
24000
(
0.043798959
0.044111643
0.04494082
0.046169238
0.04686398
0.046127374
0.044650234
0.043143663
0.041654635
0.039997318
0.037911202
0.034981616
0.031271179
0.027417381
0.023595877
0.019961256
0.016680528
0.013798896
0.011312139
0.0091985534
0.0074201681
0.0059304008
0.0046845076
0.0036432983
0.0027735107
0.00204717
0.0014408102
0.00093475883
0.00051253477
0.00016033848
0.043781861
0.044095599
0.044927875
0.046163261
0.046869184
0.046136553
0.044654
0.043139195
0.041643242
0.039980878
0.037891946
0.034962094
0.031253332
0.02740079
0.023580702
0.019948335
0.016669892
0.013790471
0.011305932
0.0091945541
0.0074182119
0.0059302071
0.0046856789
0.0036453595
0.0027759784
0.0020496203
0.0014429209
0.00093632466
0.00051346487
0.00016064244
0.043766051
0.044078281
0.0449052
0.046131476
0.046838498
0.046111573
0.044630091
0.043114442
0.041618243
0.039955964
0.037867036
0.034938542
0.031232194
0.027381815
0.02356401
0.019934634
0.016659167
0.013782311
0.011299749
0.0091897182
0.0074141806
0.0059266298
0.0046823994
0.0036423606
0.0027733208
0.0020473855
0.0014411746
0.00093510008
0.00051275777
0.00016041366
0.043749323
0.044060378
0.044884022
0.04610679
0.046819054
0.046097167
0.044614376
0.043095346
0.041596514
0.039932413
0.037842238
0.034913931
0.031209265
0.027360786
0.023545256
0.019918982
0.016646618
0.01377254
0.011292398
0.0091844153
0.0074105412
0.0059242869
0.004681022
0.0036416606
0.0027730597
0.0020473768
0.0014412806
0.00093522813
0.00051285231
0.00016044921
0.043732318
0.044042169
0.044862702
0.046082382
0.04679988
0.046082703
0.044598262
0.043075691
0.041574061
0.039907949
0.037816302
0.034887679
0.031184243
0.027337477
0.02352413
0.019900934
0.016631715
0.013760468
0.011282756
0.0091767791
0.0074045046
0.0059195166
0.0046772646
0.0036387283
0.0027708101
0.0020457002
0.0014400883
0.00093444698
0.00051242028
0.00016031291
0.043715116
0.044023872
0.044841654
0.046058821
0.046781757
0.04606922
0.044582996
0.043056585
0.041551941
0.039883585
0.037790236
0.034860907
0.031158373
0.027313148
0.023501887
0.019881736
0.016615705
0.013747397
0.011272283
0.0091685235
0.0073980675
0.0059145436
0.0046734613
0.003635858
0.002768683
0.0020441669
0.0014390301
0.00093377108
0.00051205387
0.00016019928
0.043697816
0.044005562
0.044820793
0.046035639
0.046764027
0.046056131
0.044568065
0.043037688
0.041529853
0.039859144
0.037763951
0.034833656
0.031131788
0.027287979
0.023478732
0.0198616
0.016598784
0.013733465
0.011261016
0.0091595411
0.0073909701
0.0059089782
0.0046691361
0.00363254
0.0027661848
0.0020423393
0.0014377524
0.00093294598
0.00051160274
0.00016005835
0.043680473
0.043987274
0.044800091
0.046012666
0.046746535
0.046043326
0.044553349
0.043018914
0.041507822
0.039834689
0.037737556
0.034806127
0.031104766
0.027262293
0.023455013
0.019840885
0.016581301
0.013719014
0.011249288
0.0091501633
0.0073835445
0.0059031475
0.0046646017
0.0036290608
0.0027635658
0.0020404239
0.0014364139
0.00093208216
0.0005111307
0.00015991098
0.043663118
0.043969018
0.044779506
0.045989874
0.046729178
0.046030696
0.044538796
0.043000241
0.041485823
0.03981022
0.037711077
0.034778399
0.031077438
0.027236245
0.023430902
0.019819772
0.016563425
0.013704196
0.01123723
0.0091404934
0.0073758664
0.005897102
0.0046598884
0.003625436
0.0027608316
0.0020384206
0.0014350118
0.00093117621
0.00051063515
0.00015975615
0.043645766
0.043950794
0.044759011
0.045967167
0.046711883
0.046018192
0.044524321
0.042981643
0.041463875
0.039785739
0.037684542
0.034750535
0.031049902
0.027209961
0.023406526
0.019798386
0.016545284
0.013689135
0.011224949
0.0091306271
0.0073680205
0.0058909156
0.0046550597
0.0036217184
0.0027580252
0.0020363628
0.0014335709
0.00093024475
0.00051012548
0.00015959688
0.043628425
0.043932602
0.044738585
0.045944501
0.046694625
0.046005762
0.044509941
0.042963069
0.041441938
0.03976125
0.037657968
0.034722584
0.031022221
0.02718351
0.023381968
0.019776812
0.016526958
0.013673901
0.011212511
0.0091206244
0.0073600559
0.0058846291
0.0046501489
0.0036179343
0.0027551665
0.0020342655
0.0014321018
0.00092929468
0.00050960549
0.00015943435
0.043611097
0.043914426
0.044718208
0.045921913
0.046677375
0.045993391
0.044495596
0.042944568
0.04142001
0.039736765
0.037631366
0.034694566
0.030994439
0.027156944
0.02335729
0.019755109
0.016508505
0.013658546
0.011199962
0.0091105228
0.0073520052
0.0058782695
0.0046451773
0.0036141009
0.0027522691
0.0020321389
0.0014306116
0.00092833068
0.00050907776
0.00015926937
0.043593781
0.043896271
0.044697849
0.045899324
0.04666012
0.04598106
0.044481326
0.042926091
0.041398091
0.039712279
0.037604748
0.034666502
0.030966596
0.027130303
0.023332536
0.019733323
0.016489966
0.01364311
0.011187339
0.009100355
0.0073438974
0.0058718619
0.0046401658
0.0036102353
0.0027493466
0.0020299933
0.0014291076
0.00092735769
0.00050854506
0.00015910282
0.043576477
0.043878133
0.044677521
0.045876752
0.046642859
0.045968765
0.044467078
0.042907634
0.041376208
0.039687797
0.037578123
0.034638407
0.030938715
0.027103607
0.023307725
0.019711477
0.016471371
0.013627616
0.011174663
0.0090901397
0.0073357478
0.0058654192
0.0046351245
0.0036063456
0.0027464052
0.0020278332
0.0014275934
0.00092637787
0.00050800857
0.00015893509
0.043559183
0.043860009
0.044657227
0.045854232
0.046625574
0.045956507
0.044452898
0.042889247
0.04135435
0.039663322
0.037551495
0.034610291
0.030910801
0.027076875
0.023282878
0.019689593
0.016452738
0.013612085
0.011161952
0.0090798928
0.0073275712
0.0058589528
0.0046300634
0.0036024398
0.0027434511
0.0020256635
0.0014260722
0.00092539353
0.00050746963
0.00015876658
0.043541896
0.043841895
0.044636962
0.045831675
0.046608275
0.045944265
0.044438737
0.042870868
0.041332502
0.039638854
0.037524867
0.034582162
0.030882865
0.027050121
0.023258008
0.019667687
0.016434082
0.013596527
0.011149215
0.0090696218
0.007319373
0.0058524667
0.0046249854
0.0035985203
0.0027404857
0.0020234851
0.0014245447
0.00092440494
0.00050692833
0.00015859731
0.043524613
0.043823788
0.044616723
0.045809138
0.046590946
0.045932049
0.044424642
0.042852531
0.041310668
0.039614397
0.037498241
0.034554032
0.030854917
0.027023363
0.023233127
0.019645774
0.016415412
0.013580957
0.011136466
0.0090593389
0.0073111642
0.0058459713
0.0046199001
0.0035945946
0.0027375154
0.0020213029
0.0014230145
0.00092341459
0.00050638604
0.00015842774
0.043507332
0.043805686
0.044596508
0.045786638
0.046573595
0.045919853
0.044410564
0.042834241
0.041288854
0.039589952
0.037471621
0.034525899
0.030826962
0.026996599
0.023208242
0.019623856
0.016396736
0.013565379
0.011123709
0.0090490473
0.0073029471
0.0058394683
0.004614808
0.0035906633
0.0027345404
0.0020191174
0.0014214817
0.00092242253
0.00050584285
0.00015825787
0.043490053
0.043787588
0.044576316
0.045764088
0.046556214
0.045907674
0.044396553
0.04281596
0.041267087
0.039565521
0.037445008
0.034497772
0.030799005
0.02696984
0.023183369
0.019601941
0.016378061
0.0135498
0.011110952
0.0090387548
0.0072947277
0.005832963
0.004609714
0.0035867302
0.0027315641
0.002016931
0.0014199482
0.00092142998
0.00050529939
0.00015808791
0.043472775
0.043769493
0.044556131
0.045741564
0.046538803
0.04589552
0.044382558
0.042797747
0.041245336
0.039541104
0.037418404
0.034469653
0.030771063
0.026943087
0.023158509
0.019580035
0.016359392
0.01353423
0.011098196
0.0090284609
0.0072865055
0.0058264547
0.0046046165
0.003582794
0.002728585
0.0020147423
0.0014184129
0.00092043626
0.00050475526
0.00015791774
0.043455496
0.0437514
0.044535941
0.04571907
0.04652137
0.045883374
0.044368633
0.042779558
0.0412236
0.039516705
0.037391812
0.034441539
0.030743132
0.026916343
0.023133663
0.019558144
0.016340733
0.013518669
0.011085449
0.0090181729
0.0072782877
0.0058199501
0.0045995217
0.00357886
0.0027256077
0.0020125548
0.0014168786
0.00091944314
0.00050421146
0.00015774767
0.043438217
0.043733309
0.04451577
0.045696524
0.046503899
0.045871248
0.044354725
0.042761392
0.041201882
0.039492324
0.03736523
0.034413432
0.030715207
0.026889609
0.02310883
0.019536268
0.016322089
0.013503117
0.011072708
0.0090078885
0.007270072
0.0058134465
0.0045944271
0.0035749261
0.00272263
0.0020103672
0.0014153441
0.00091844986
0.00050366758
0.00015757758
0.043420935
0.043715218
0.044495619
0.045674008
0.046486407
0.045859148
0.044340884
0.042743297
0.041180206
0.039467959
0.037338661
0.034385333
0.03068729
0.026862892
0.023084013
0.019514408
0.016303462
0.013487578
0.011059977
0.0089976137
0.0072618631
0.0058069475
0.0045893362
0.003570995
0.0027196544
0.0020081811
0.0014138105
0.00091745725
0.00050312406
0.0001574076
0.043403651
0.043697128
0.044475487
0.045651519
0.046468878
0.045847052
0.044327068
0.042725213
0.041158562
0.039443616
0.037312104
0.034357243
0.030659383
0.026836192
0.023059214
0.01949257
0.016284851
0.01347205
0.011047256
0.0089873451
0.0072536577
0.0058004501
0.0045842455
0.0035670635
0.0027166782
0.0020059944
0.0014122765
0.00091646428
0.00050258026
0.00015723752
0.043386364
0.043679037
0.044455373
0.045628974
0.046451323
0.045834978
0.044313309
0.042707181
0.041136934
0.039419293
0.037285561
0.034329167
0.030631485
0.026809508
0.023034436
0.019470754
0.01626626
0.013456539
0.011034549
0.0089770892
0.0072454628
0.0057939613
0.004579162
0.0035631377
0.0027137063
0.0020038109
0.0014107449
0.00091547285
0.00050203729
0.00015706771
0.043369074
0.043660945
0.044435276
0.045606462
0.046433734
0.045822916
0.044299585
0.042689191
0.041115323
0.039394987
0.037259031
0.034301101
0.030603599
0.026782843
0.023009684
0.019448957
0.016247686
0.013441043
0.011021853
0.0089668416
0.0072372742
0.005787477
0.0045740823
0.0035592142
0.0027107366
0.0020016287
0.0014092141
0.00091448196
0.00050149462
0.00015689799
0.043351779
0.04364285
0.044415197
0.045583971
0.046416111
0.045810864
0.044285907
0.042671218
0.041093741
0.039370699
0.037232516
0.034273048
0.030575738
0.026756194
0.022984957
0.019427181
0.016229131
0.013425563
0.011009173
0.0089566062
0.0072290954
0.0057810009
0.0045690092
0.0035552959
0.0027077708
0.0019994494
0.0014076855
0.00091349249
0.00050095272
0.00015672851
0.043334481
0.043624751
0.044395122
0.045561428
0.046398462
0.045798836
0.044272278
0.042653319
0.041072208
0.039346429
0.037206016
0.034245014
0.030547892
0.026729561
0.022960251
0.019405429
0.016210594
0.013410098
0.010996503
0.0089463787
0.0072209218
0.0057745285
0.0045639378
0.0035513784
0.0027048053
0.0019972702
0.0014061569
0.00091250296
0.00050041074
0.00015655901
0.043317179
0.043606651
0.044375038
0.045538921
0.046380774
0.04578681
0.044258685
0.042635438
0.041050692
0.039322178
0.037179531
0.03421699
0.030520058
0.026702946
0.022935568
0.019383702
0.016192079
0.013394653
0.01098385
0.008936165
0.0072127609
0.005768066
0.0045588743
0.0035474672
0.0027018448
0.0019950947
0.001404631
0.00091151519
0.00049986973
0.0001563898
0.043299872
0.043588551
0.044354973
0.045516432
0.046363061
0.045774799
0.04424515
0.042617599
0.041029195
0.039297946
0.037153061
0.034188978
0.030492236
0.026676356
0.022910907
0.019361996
0.016173583
0.013379228
0.01097121
0.0089259606
0.0072046071
0.0057616085
0.0045538146
0.0035435589
0.0026988865
0.0019929208
0.0014031061
0.00091052815
0.00049932912
0.00015622073
0.043282561
0.043570449
0.044334926
0.045493896
0.046345311
0.045762812
0.044231648
0.042599817
0.041007721
0.039273733
0.037126607
0.034160977
0.030464426
0.026649785
0.022886269
0.019340315
0.016155112
0.013363822
0.010958587
0.0089157695
0.0071964635
0.0057551593
0.0045487614
0.0035396557
0.0026959323
0.0019907498
0.0014015834
0.00090954248
0.00049878927
0.0001560519
0.043265245
0.043552346
0.044314897
0.045471395
0.046327533
0.045750822
0.044218205
0.04258205
0.040986296
0.039249541
0.037100168
0.034132987
0.030436629
0.026623235
0.022861655
0.019318661
0.016136661
0.013348432
0.010945978
0.0089055869
0.0071883246
0.0057487124
0.0045437093
0.0035357527
0.0026929777
0.0019885783
0.0014000602
0.00090855638
0.00049824915
0.00015588298
0.043247925
0.043534242
0.044294884
0.045448912
0.04630972
0.045738853
0.044204792
0.042564355
0.040964898
0.03922537
0.037073745
0.034105014
0.030408849
0.026596705
0.022837073
0.019297033
0.016118238
0.013333064
0.010933388
0.0088954209
0.0071801996
0.0057422771
0.0045386668
0.0035318575
0.0026900289
0.001986411
0.00139854
0.00090757227
0.00049771015
0.00015571442
0.043230598
0.043516136
0.044274888
0.045426381
0.046291871
0.045726895
0.044191443
0.042546684
0.040943518
0.039201222
0.037047339
0.034077054
0.030381095
0.026570192
0.022812517
0.019275428
0.016099835
0.013317713
0.010920812
0.008885266
0.0071720829
0.005735848
0.004533629
0.0035279658
0.0026870826
0.0019842456
0.001397021
0.00090658902
0.00049717168
0.00015554601
0.043213263
0.043498021
0.044254909
0.045403886
0.046273994
0.045714938
0.044178121
0.042529052
0.040922158
0.039177095
0.037020948
0.034049107
0.030353353
0.026543697
0.022787984
0.019253848
0.016081455
0.013302383
0.010908254
0.0088751264
0.0071639787
0.0057294295
0.0045285994
0.0035240806
0.0026841414
0.0019820841
0.0013955049
0.00090560755
0.0004966342
0.00015537792
0.043195923
0.043479903
0.04423494
0.04538141
0.046256078
0.045703002
0.044164866
0.042511482
0.040900844
0.039152991
0.036994574
0.034021179
0.030325624
0.026517221
0.022763473
0.019232294
0.016063094
0.01328707
0.010895709
0.0088649969
0.0071558802
0.0057230145
0.0045235715
0.0035201961
0.0026812003
0.0019799226
0.0013939884
0.00090462586
0.00049609657
0.00015520978
0.043178579
0.043461784
0.044214957
0.045358886
0.046238134
0.045691069
0.044151643
0.042493927
0.040879564
0.039128913
0.036968216
0.033993265
0.030297907
0.026490771
0.022738987
0.019210765
0.016044758
0.013271777
0.010883182
0.0088548844
0.007147797
0.0057166118
0.0045185539
0.0035163199
0.0026782658
0.0019777662
0.0013924755
0.00090364648
0.00049556025
0.00015504204
0.04316123
0.043443664
0.044194992
0.045336398
0.046220153
0.045679142
0.044138479
0.042476443
0.040858304
0.039104855
0.036941875
0.033965361
0.030270202
0.026464337
0.022714522
0.019189257
0.016026439
0.0132565
0.010870668
0.0088447803
0.0071397198
0.0057102134
0.0045135393
0.0035124463
0.0026753329
0.0019756109
0.0013909635
0.00090266768
0.00049502426
0.00015487441
0.043143876
0.043425543
0.044175045
0.045313937
0.046202143
0.045667236
0.044125361
0.042458987
0.040837063
0.039080818
0.036915552
0.03393747
0.03024251
0.026437926
0.022690082
0.019167774
0.016008143
0.013241242
0.01085817
0.0088346896
0.0071316535
0.0057038239
0.004508532
0.0035085785
0.0026724046
0.001973459
0.0013894539
0.0009016905
0.00049448915
0.00015470706
0.043126517
0.043407421
0.044155116
0.045291424
0.046184097
0.045655325
0.044112289
0.042441571
0.040815861
0.039056803
0.036889246
0.033909591
0.030214835
0.026411534
0.022665673
0.01914632
0.01598987
0.013226005
0.010845683
0.0088246062
0.0071235912
0.005697436
0.0045035247
0.0035047099
0.0026694751
0.0019713061
0.0013879434
0.00090071258
0.00049395361
0.00015453956
0.043109152
0.043389298
0.044135205
0.045268947
0.046166016
0.045643423
0.044099273
0.042424217
0.040794703
0.03903281
0.036862961
0.033881728
0.030187186
0.02638516
0.022641293
0.019124892
0.015971624
0.013210792
0.010833218
0.0088145408
0.0071155442
0.0056910609
0.004498528
0.0035008498
0.0026665523
0.0019691583
0.0013864364
0.00089973699
0.00049341935
0.00015437246
0.043091783
0.043371173
0.04411531
0.045246503
0.046147904
0.04563154
0.044086297
0.042406882
0.040773564
0.039008838
0.036836695
0.033853881
0.03015955
0.026358804
0.022616936
0.019103488
0.015953401
0.013195596
0.010820767
0.0088044854
0.0071075043
0.005684691
0.0044935355
0.0034969924
0.0026636314
0.0019670118
0.0013849304
0.00089876208
0.00049288548
0.0001542055
0.043074408
0.043353046
0.044095431
0.045223999
0.046129754
0.045619647
0.044073381
0.042389618
0.040752445
0.038984889
0.036810447
0.033826048
0.030131927
0.026332472
0.022592603
0.01908211
0.015935203
0.013180421
0.010808336
0.0087944456
0.0070994786
0.0056783324
0.0044885519
0.0034931419
0.0026607162
0.0019648695
0.0013834275
0.00089778919
0.00049235266
0.00015403886
0.043057027
0.043334917
0.044075571
0.045201532
0.046111575
0.045607768
0.044060501
0.042372379
0.040731359
0.038960962
0.036784217
0.033798231
0.030104315
0.026306161
0.022568293
0.019060758
0.015917024
0.013165262
0.010795918
0.0087844144
0.0070914577
0.0056719763
0.0044835689
0.0034892912
0.0026578004
0.0019627263
0.0013819238
0.00089681571
0.00049181949
0.0001538721
0.043039641
0.043316786
0.044055697
0.045179102
0.046093357
0.045595896
0.044047687
0.042355189
0.040710322
0.038937061
0.036758006
0.033770432
0.030076717
0.02627987
0.022544008
0.019039433
0.01589887
0.013150127
0.01078352
0.0087744019
0.0070834524
0.0056656335
0.0044785971
0.0034854495
0.0026548917
0.0019605884
0.001380424
0.00089584473
0.00049128769
0.00015370578
0.04302225
0.043298654
0.044035834
0.045156616
0.046075111
0.045584016
0.044034914
0.042338053
0.040689305
0.038913183
0.036731814
0.033742646
0.030049131
0.026253602
0.022519748
0.019018129
0.015880735
0.013135007
0.010771135
0.0087643981
0.0070754534
0.0056592951
0.0044736282
0.0034816099
0.0026519845
0.0019584517
0.001378925
0.00089487435
0.00049075621
0.00015353956
0.043004853
0.04328052
0.044015989
0.045134162
0.046056825
0.045572154
0.044022199
0.04232094
0.040668308
0.038889328
0.03670564
0.033714872
0.030021563
0.02622735
0.022495516
0.01899685
0.015862622
0.013119906
0.010758766
0.0087544079
0.0070674655
0.0056529659
0.0044686669
0.0034777764
0.0026490821
0.0019563186
0.0013774287
0.0008939057
0.00049022566
0.00015337363
0.042987451
0.043262385
0.043996161
0.045111748
0.046038507
0.045560291
0.044009538
0.042303899
0.040647341
0.038865502
0.036679485
0.033687111
0.029994017
0.026201115
0.022471311
0.018975598
0.015844527
0.013104819
0.010746407
0.0087444236
0.0070594801
0.0056466369
0.0044637047
0.0034739411
0.002646178
0.0019541838
0.0013759309
0.00089293602
0.00048969452
0.00015320751
0.042970042
0.043244248
0.043976352
0.045089288
0.046020155
0.04554842
0.043996926
0.042286879
0.040626425
0.038841699
0.036653348
0.033659363
0.029966484
0.026174899
0.022447131
0.018954372
0.01582646
0.013089756
0.010734068
0.0087344586
0.00705151
0.0056403207
0.0044587533
0.0034701145
0.0026432805
0.0019520539
0.0013744367
0.00089196865
0.00048916465
0.00015304178
0.042952628
0.04322611
0.043956559
0.045066848
0.046001768
0.045536566
0.043984371
0.042269921
0.040605529
0.038817919
0.036627232
0.033631633
0.029938963
0.026148707
0.022422974
0.018933169
0.015808415
0.013074711
0.010721742
0.008724503
0.0070435466
0.0056340096
0.0044538053
0.0034662908
0.002640385
0.0019499254
0.0013729434
0.00089100195
0.00048863516
0.00015287619
0.042935207
0.043207965
0.043936783
0.045044448
0.045983349
0.045524705
0.043971861
0.042253002
0.040584653
0.038794161
0.036601135
0.033603918
0.029911455
0.026122536
0.022398842
0.018911992
0.015790395
0.013059689
0.010709434
0.0087145627
0.0070355967
0.0056277095
0.0044488661
0.0034624741
0.0026374949
0.0019478011
0.0013714532
0.00089003722
0.00048810676
0.00015271093
0.042917781
0.043189818
0.043917023
0.045022018
0.045964894
0.045512836
0.043959415
0.042236118
0.040563808
0.038770425
0.036575057
0.033576216
0.029883959
0.026096386
0.022374732
0.018890841
0.015772396
0.013044684
0.010697138
0.00870463
0.0070276513
0.0056214114
0.0044439273
0.003458657
0.002634604
0.0019456758
0.0013699621
0.00088907185
0.00048757798
0.00015254557
0.042900348
0.043171668
0.043897278
0.044999592
0.045946408
0.045500984
0.043947018
0.042219301
0.040543012
0.038746711
0.036549
0.033548536
0.029856476
0.026070258
0.022350649
0.018869716
0.015754422
0.013029702
0.010684864
0.0086947154
0.0070197213
0.0056151263
0.0044389994
0.0034548487
0.00263172
0.0019435557
0.0013684748
0.00088810892
0.00048705058
0.00015238063
0.042882909
0.043153516
0.043877518
0.044977205
0.04592788
0.045489117
0.043934683
0.042202504
0.040522238
0.03872302
0.036522962
0.03352087
0.029829013
0.026044148
0.022326594
0.018848614
0.015736467
0.013014735
0.010672601
0.0086848089
0.0070117969
0.005608845
0.0044340741
0.0034510421
0.0026288372
0.0019414367
0.001366988
0.00088714642
0.00048652346
0.00015221577
0.042865464
0.043135361
0.043857775
0.044954811
0.045909324
0.045477244
0.043922403
0.042185776
0.040501483
0.038699354
0.036496943
0.033493217
0.029801572
0.026018057
0.022302569
0.018827536
0.015718534
0.012999787
0.010660356
0.0086749161
0.0070038839
0.0056025731
0.0044291563
0.0034472418
0.0026259593
0.0019393213
0.0013655039
0.0008861856
0.00048599726
0.00015205122
0.042848013
0.043117205
0.043838051
0.044932403
0.045890731
0.045465386
0.043910177
0.042169073
0.04048076
0.038675713
0.036470946
0.033465578
0.029774142
0.025991982
0.022278565
0.018806484
0.015700619
0.012984854
0.010648123
0.0086650294
0.0069959737
0.0055963017
0.0044242378
0.0034434402
0.0026230796
0.0019372045
0.0013640185
0.00088522388
0.00048547057
0.00015188649
0.042830554
0.043099047
0.043818344
0.044910034
0.045872106
0.04545351
0.043898012
0.042152427
0.040460086
0.038652093
0.036444967
0.033437951
0.029746725
0.025965933
0.022254586
0.018785458
0.015682727
0.012969942
0.010635907
0.0086551589
0.0069880771
0.0055900416
0.0044193285
0.003439646
0.0026202057
0.0019350919
0.0013625361
0.00088426417
0.00048494498
0.00015172211
0.042813089
0.043080886
0.043798655
0.04488768
0.045853447
0.045441627
0.043885896
0.042135824
0.040439432
0.038628502
0.036419007
0.033410338
0.029719319
0.025939903
0.022230628
0.018764453
0.015664855
0.012955044
0.010623703
0.0086452974
0.0069801874
0.0055837856
0.0044144222
0.0034358539
0.0026173334
0.0019329806
0.0013610547
0.00088330505
0.00048441975
0.00015155785
0.042795618
0.043062721
0.043778983
0.04486529
0.045834755
0.045429753
0.043873853
0.042119253
0.040418797
0.038604936
0.036393066
0.033382743
0.029691925
0.025913894
0.022206694
0.018743472
0.015647008
0.012940167
0.010611517
0.0086354506
0.0069723099
0.0055775404
0.0044095248
0.0034320685
0.0026144664
0.0019308733
0.001359576
0.00088234774
0.0004838955
0.00015139389
0.042778136
0.043044548
0.043759327
0.044842938
0.045816031
0.045417858
0.043861864
0.04210275
0.040398197
0.038581392
0.036367144
0.033355161
0.029664545
0.025887906
0.022182783
0.018722516
0.015629181
0.012925305
0.010599342
0.0086256114
0.0069644369
0.0055712976
0.0044046281
0.0034282828
0.0026115986
0.0019287652
0.0013580965
0.00088138989
0.00048337093
0.00015122983
0.042760648
0.043026371
0.043739688
0.044820615
0.045797266
0.045405957
0.043849937
0.042086266
0.040377645
0.03855787
0.036341241
0.033327595
0.029637184
0.025861937
0.0221589
0.018701586
0.01561138
0.012910468
0.010587186
0.0086157894
0.0069565787
0.0055650673
0.0043997417
0.0034245056
0.0026087375
0.0019266621
0.0013566207
0.00088043435
0.00048284763
0.00015106617
0.042743153
0.043008191
0.043720061
0.044798254
0.045778474
0.045394056
0.04383807
0.04206985
0.040357111
0.03853437
0.036315357
0.033300049
0.029609847
0.025835988
0.022135046
0.018680679
0.015593597
0.012895647
0.010575042
0.0086059764
0.0069487262
0.0055588411
0.0043948582
0.0034207304
0.0026058783
0.0019245601
0.0013551458
0.00087947942
0.00048232467
0.00015090261
0.04272565
0.042990008
0.043700421
0.044775921
0.045759641
0.045382132
0.04382626
0.042053456
0.040336597
0.038510891
0.03628949
0.033272516
0.029582524
0.025810057
0.022111217
0.018659794
0.015575836
0.012880845
0.010562913
0.0085961765
0.0069408838
0.005552623
0.0043899814
0.0034169606
0.0026030231
0.0019224613
0.0013536731
0.00087852602
0.00048180251
0.00015073931
0.042708141
0.042971823
0.043680799
0.044753625
0.04574078
0.045370201
0.043814523
0.042037123
0.040316125
0.038487433
0.03626364
0.033244994
0.029555213
0.025784149
0.022087409
0.018638932
0.015558091
0.012866056
0.010550793
0.0085863816
0.0069330434
0.005546405
0.0043851034
0.003413189
0.0026001662
0.0019203608
0.0013521991
0.00087757166
0.00048127979
0.00015057583
0.042690623
0.042953634
0.043661195
0.044731304
0.045721881
0.045358274
0.043802832
0.042020824
0.040295694
0.038464
0.036237806
0.033217484
0.029527917
0.025758262
0.022063624
0.018618096
0.015540368
0.012851286
0.010538691
0.0085766018
0.006925216
0.0055401977
0.0043802344
0.0034094246
0.0025973148
0.0019182644
0.0013507281
0.00087661925
0.00048075814
0.00015041269
0.042673099
0.042935442
0.043641608
0.044708992
0.045702952
0.045346335
0.043791188
0.042004568
0.040275281
0.038440591
0.036211989
0.033189986
0.029500634
0.025732394
0.022039859
0.01859728
0.015522662
0.01283653
0.0105266
0.0085668293
0.0069173943
0.0055339942
0.0043753681
0.0034056619
0.0025944647
0.0019161691
0.0013492579
0.00087566739
0.00048023678
0.00015024964
0.042655566
0.042917248
0.043622038
0.04468672
0.045683989
0.045334404
0.043779587
0.041988365
0.04025489
0.038417203
0.036186188
0.033162502
0.029473363
0.025706546
0.022016116
0.018576485
0.015504976
0.012821792
0.010514525
0.0085570699
0.0069095836
0.0055278002
0.0043705094
0.0034019055
0.0025916197
0.0019140774
0.0013477903
0.00087471725
0.00047971637
0.00015008689
0.042638026
0.04289905
0.043602486
0.044664448
0.045664986
0.045322475
0.043768026
0.041972187
0.040234545
0.038393843
0.036160402
0.033135032
0.02944611
0.025680715
0.021992394
0.018555711
0.015487307
0.012807067
0.010502461
0.0085473168
0.0069017763
0.0055216075
0.0043656507
0.0033981487
0.0025887736
0.0019119846
0.0013463218
0.00087376644
0.00047919555
0.00014992401
0.042620477
0.042880848
0.043582949
0.044642158
0.04564596
0.045310536
0.043756526
0.041956077
0.040214234
0.038370507
0.036134633
0.033107573
0.029418881
0.025654903
0.021968699
0.018534964
0.015469665
0.012792364
0.010490417
0.0085375808
0.0068939839
0.0055154276
0.0043608027
0.0033944006
0.0025859343
0.001909897
0.001344857
0.00087281803
0.00047867606
0.00014976154
0.04260292
0.042862642
0.043563429
0.044619906
0.045626887
0.045298603
0.043745062
0.041939988
0.040193941
0.038347192
0.03610888
0.033080129
0.029391668
0.025629108
0.021945032
0.018514237
0.015452041
0.012777674
0.010478383
0.0085278523
0.0068861967
0.0055092513
0.0043559572
0.0033906542
0.0025830963
0.0019078103
0.0013433929
0.0008718701
0.00047815684
0.00014959916
0.042585356
0.042844431
0.043543925
0.044597676
0.045607792
0.045286669
0.043733645
0.041923962
0.040173676
0.038323896
0.036083142
0.033052703
0.029364468
0.025603334
0.021921386
0.018493531
0.015434438
0.012763001
0.010466363
0.0085181362
0.0068784195
0.0055030832
0.0043511185
0.0033869134
0.0025802627
0.001905727
0.0013419312
0.00087092372
0.00047763848
0.00014943705
0.042567783
0.042826216
0.043524409
0.044575419
0.045588654
0.045274725
0.043722271
0.041907963
0.040153459
0.038300621
0.03605742
0.033025286
0.02933728
0.025577581
0.02189776
0.018472844
0.01541685
0.012748342
0.010454351
0.0085084244
0.0068706433
0.0054969142
0.0043462778
0.0033831702
0.0025774268
0.0019036416
0.0013404678
0.00086997618
0.00047711945
0.00014927473
0.042550201
0.042807997
0.043504907
0.04455319
0.04556949
0.045262787
0.043710945
0.041892023
0.040133268
0.038277367
0.036031712
0.032997881
0.029310106
0.025551847
0.021874157
0.018452183
0.015399283
0.012733704
0.010442356
0.0084987282
0.0068628814
0.0054907568
0.0043414469
0.0033794351
0.0025745971
0.0019015609
0.0013390078
0.00086903088
0.00047660165
0.0001491128
0.042532611
0.042789774
0.043485422
0.044530994
0.045550289
0.045250845
0.043699673
0.041876116
0.040113096
0.038254135
0.036006021
0.032970486
0.029282945
0.025526134
0.021850573
0.018431543
0.015381731
0.012719079
0.010430371
0.008489038
0.0068551238
0.005484602
0.0043366177
0.0033757012
0.0025717682
0.001899481
0.0013375483
0.00086808588
0.00047608409
0.00014895094
0.042515013
0.042771548
0.043465954
0.044508786
0.04553105
0.045238893
0.043688438
0.041860263
0.04009296
0.038230928
0.035980344
0.032943101
0.029255798
0.025500437
0.021827009
0.018410923
0.015364199
0.012704471
0.0104184
0.0084793603
0.0068473766
0.0054784561
0.0043317957
0.0033719734
0.002568944
0.0018974047
0.0013360913
0.00086714258
0.00047556747
0.00014878938
0.042497406
0.042753314
0.043446503
0.044486582
0.045511792
0.045226947
0.043677251
0.041844454
0.040072873
0.038207742
0.035954682
0.03291573
0.029228673
0.025474756
0.021803468
0.018390322
0.015346683
0.012689875
0.010406437
0.0084696878
0.0068396314
0.0054723109
0.0043269728
0.0033682438
0.002566118
0.0018953268
0.001334633
0.00086619832
0.00047505028
0.00014862764
0.04247979
0.042735075
0.04342707
0.044464419
0.04549248
0.045214995
0.043666117
0.041828683
0.040052804
0.038184583
0.035929037
0.032888372
0.029201566
0.025449093
0.021779951
0.018369746
0.015329189
0.0126753
0.010394493
0.008460033
0.0068319007
0.0054661782
0.0043221608
0.0033645227
0.0025632987
0.0018932539
0.0013331783
0.0008652564
0.00047453441
0.00014846629
0.042462165
0.042716831
0.043407653
0.044442264
0.045473154
0.045203031
0.043655023
0.041812973
0.040032759
0.03816145
0.035903408
0.032861024
0.029174471
0.025423447
0.021756462
0.018349191
0.015311712
0.012660738
0.010382561
0.0084503855
0.0068241751
0.0054600488
0.0043173509
0.0033608031
0.0025604804
0.0018911818
0.0013317241
0.00086431483
0.00047401876
0.00014830502
0.042444532
0.042698583
0.043388253
0.044420087
0.045453779
0.045191071
0.043643981
0.041797291
0.04001276
0.038138337
0.035877793
0.032833688
0.02914739
0.025397826
0.021732993
0.018328658