/*--------------------------------*- C++ -*----------------------------------*\
| =========                 |                                                 |
| \\      /  F ield         | OpenFOAM: The Open Source CFD Toolbox           |
|  \\    /   O peration     | Version:  v2012                                 |
|   \\  /    A nd           | Website:  www.openfoam.com                      |
|    \\/     M anipulation  |                                                 |
\*---------------------------------------------------------------------------*/
FoamFile
{
    version     2.0;
    format      ascii;
    class       volScalarField;
    location    "550";
    object      nut;
}
// * * * * * * * * * * * * * * * * * * * * * * * * * * * * * * * * * * * * * //

dimensions      [0 2 -1 0 0 0 0];


internalField   nonuniform List<scalar> 
24000
(
3.5180531e-05
1.0868341e-05
6.8062348e-06
6.0897028e-06
8.7785946e-06
1.1115665e-05
1.2193514e-05
1.2317313e-05
1.1707761e-05
1.1363098e-05
8.3123781e-06
4.6713203e-06
3.5396736e-06
2.7305868e-06
1.7355485e-06
1.1064668e-06
6.770405e-07
3.5570291e-07
1.4772093e-07
5.2954326e-08
1.6899704e-08
4.9057195e-09
1.301771e-09
3.1175361e-10
6.5289569e-11
1.1333836e-11
1.537078e-12
2.176878e-13
1.2122996e-13
1.2975722e-13
3.5267789e-05
1.0718761e-05
6.7238938e-06
6.0506544e-06
8.7436803e-06
1.1086053e-05
1.2175875e-05
1.2306003e-05
1.1704015e-05
1.1367068e-05
8.3044689e-06
4.6665742e-06
3.5335869e-06
2.7212397e-06
1.7304174e-06
1.1035625e-06
6.7529377e-07
3.5470871e-07
1.4728633e-07
5.2794887e-08
1.6848635e-08
4.8909933e-09
1.2979254e-09
3.1085408e-10
6.5107061e-11
1.1303859e-11
1.5338816e-12
2.1798225e-13
1.2182809e-13
1.3034255e-13
3.535857e-05
1.084413e-05
6.8352838e-06
6.0775993e-06
8.7159081e-06
1.1037719e-05
1.2121783e-05
1.225542e-05
1.1652316e-05
1.1309022e-05
8.2908596e-06
4.6588419e-06
3.5267071e-06
2.7130596e-06
1.7254993e-06
1.1006125e-06
6.7343756e-07
3.5356825e-07
1.4678829e-07
5.2614262e-08
1.6791819e-08
4.8749399e-09
1.2937934e-09
3.0989299e-10
6.4911004e-11
1.1270581e-11
1.5294148e-12
2.1731489e-13
1.2143923e-13
1.2994052e-13
3.5450521e-05
1.0900783e-05
6.8741773e-06
6.0732986e-06
8.688906e-06
1.1007609e-05
1.2090271e-05
1.2223715e-05
1.1620933e-05
1.1275102e-05
8.275594e-06
4.6500573e-06
3.5196892e-06
2.7045162e-06
1.7204182e-06
1.0975654e-06
6.7151351e-07
3.5235124e-07
1.4623797e-07
5.2406025e-08
1.6723494e-08
4.8549117e-09
1.2884812e-09
3.086282e-10
6.4648682e-11
1.1225906e-11
1.52385e-12
2.169742e-13
1.2152316e-13
1.3001053e-13
3.5543312e-05
1.0954465e-05
6.9060651e-06
6.066685e-06
8.6622305e-06
1.0979077e-05
1.2059312e-05
1.219232e-05
1.1589809e-05
1.1242141e-05
8.258945e-06
4.6403834e-06
3.5125015e-06
2.6959814e-06
1.7152206e-06
1.0943868e-06
6.6948618e-07
3.5107681e-07
1.4566795e-07
5.21932e-08
1.6654504e-08
4.8348775e-09
1.2832037e-09
3.0737769e-10
6.4390004e-11
1.1181723e-11
1.5181255e-12
2.1637551e-13
1.2131949e-13
1.2978647e-13
3.5636804e-05
1.099554e-05
6.9284655e-06
6.0581222e-06
8.6358202e-06
1.0951172e-05
1.202949e-05
1.2162859e-05
1.1561189e-05
1.1211611e-05
8.241449e-06
4.6301391e-06
3.5052091e-06
2.6874135e-06
1.7099345e-06
1.0911112e-06
6.6737526e-07
3.4971875e-07
1.4505208e-07
5.1960578e-08
1.6578419e-08
4.812637e-09
1.2773165e-09
3.0597761e-10
6.4099585e-11
1.1132053e-11
1.511729e-12
2.157598e-13
1.2115499e-13
1.2960056e-13
3.573087e-05
1.1029355e-05
6.9470587e-06
6.049e-06
8.6096228e-06
1.0923459e-05
1.2000162e-05
1.2134286e-05
1.1533475e-05
1.1182294e-05
8.2234032e-06
4.6195322e-06
3.4978568e-06
2.6788023e-06
1.7045801e-06
1.0877714e-06
6.6521684e-07
3.4832768e-07
1.4442113e-07
5.1722342e-08
1.6500523e-08
4.7898701e-09
1.2712896e-09
3.0454396e-10
6.3802083e-11
1.108112e-11
1.5051359e-12
2.1509192e-13
1.2094656e-13
1.2936893e-13
3.5825412e-05
1.1058167e-05
6.9635908e-06
6.0396378e-06
8.5836106e-06
1.0895846e-05
1.197117e-05
1.2106231e-05
1.1506261e-05
1.1153744e-05
8.2050026e-06
4.60869e-06
3.4904687e-06
2.6701821e-06
1.699191e-06
1.0843932e-06
6.630276e-07
3.4691e-07
1.4377661e-07
5.1478562e-08
1.6420711e-08
4.7665198e-09
1.2651034e-09
3.030715e-10
6.3496356e-11
1.102875e-11
1.4983504e-12
2.1440104e-13
1.2072813e-13
1.2912652e-13
3.5920348e-05
1.1083891e-05
6.9790697e-06
6.0302425e-06
8.5577627e-06
1.0868301e-05
1.1942395e-05
1.2078487e-05
1.1479366e-05
1.1125702e-05
8.1863721e-06
4.5976976e-06
3.4830619e-06
2.6615612e-06
1.6937826e-06
1.0809923e-06
6.6082063e-07
3.4547856e-07
1.4312544e-07
5.1232167e-08
1.6340015e-08
4.7429032e-09
1.2588448e-09
3.0158136e-10
6.3186865e-11
1.0975713e-11
1.4914698e-12
2.1369299e-13
1.2049799e-13
1.2887183e-13
3.6015609e-05
1.1107717e-05
6.9939816e-06
6.0209009e-06
8.5320642e-06
1.0840806e-05
1.1913763e-05
1.2050937e-05
1.1452681e-05
1.1097999e-05
8.1675921e-06
4.586609e-06
3.4756463e-06
2.6529496e-06
1.6883663e-06
1.0775785e-06
6.5860329e-07
3.4403889e-07
1.4247027e-07
5.098418e-08
1.6258774e-08
4.7191207e-09
1.2525405e-09
3.0007997e-10
6.2874955e-11
1.0922245e-11
1.4845276e-12
2.129744e-13
1.2026096e-13
1.2860994e-13
3.6111133e-05
1.1130388e-05
7.0085868e-06
6.0116569e-06
8.5065043e-06
1.0813351e-05
1.1885231e-05
1.2023518e-05
1.142614e-05
1.107053e-05
8.1487154e-06
4.5754599e-06
3.4682288e-06
2.6443524e-06
1.6829495e-06
1.0741586e-06
6.5638086e-07
3.4259549e-07
1.4181339e-07
5.0735544e-08
1.6177313e-08
4.6952707e-09
1.2462173e-09
2.9857383e-10
6.2562005e-11
1.0868586e-11
1.4775562e-12
2.1224933e-13
1.2001895e-13
1.2834289e-13
3.6206862e-05
1.1152332e-05
7.0230209e-06
6.0025308e-06
8.4810749e-06
1.0785929e-05
1.1856773e-05
1.1996192e-05
1.1399701e-05
1.1043187e-05
8.1297766e-06
4.5642735e-06
3.4608133e-06
2.6357733e-06
1.6775369e-06
1.0707366e-06
6.5415637e-07
3.4115081e-07
1.4115602e-07
5.0486734e-08
1.6095793e-08
4.6714009e-09
1.239888e-09
2.9706602e-10
6.2248659e-11
1.0814849e-11
1.4705708e-12
2.1152001e-13
1.1977326e-13
1.2807206e-13
3.6302744e-05
1.1173786e-05
7.0373562e-06
5.9935301e-06
8.45577e-06
1.0758537e-05
1.182837e-05
1.1968931e-05
1.137334e-05
1.1015965e-05
8.1107993e-06
4.5530657e-06
3.4534026e-06
2.6272149e-06
1.6721319e-06
1.0673159e-06
6.5193223e-07
3.3970677e-07
1.4049912e-07
5.0238144e-08
1.6014349e-08
4.6475525e-09
1.2335639e-09
2.9555929e-10
6.1935501e-11
1.0761135e-11
1.4635859e-12
2.107887e-13
1.1952526e-13
1.2779892e-13
3.6398726e-05
1.1194893e-05
7.0516298e-06
5.9846572e-06
8.4305849e-06
1.0731171e-05
1.1800009e-05
1.1941715e-05
1.1347038e-05
1.098889e-05
8.0918e-06
4.5418474e-06
3.4459987e-06
2.6186784e-06
1.6667363e-06
1.0638979e-06
6.4970974e-07
3.3826447e-07
1.3984322e-07
4.9989986e-08
1.5933052e-08
4.6237463e-09
1.2272505e-09
2.9405493e-10
6.1622795e-11
1.0707491e-11
1.4566074e-12
2.1005634e-13
1.1927555e-13
1.2752411e-13
3.6494759e-05
1.1215746e-05
7.065853e-06
5.9759112e-06
8.4055159e-06
1.0703827e-05
1.1771681e-05
1.1914536e-05
1.1320784e-05
1.0961911e-05
8.0727897e-06
4.5306261e-06
3.438603e-06
2.6101641e-06
1.6613517e-06
1.0604844e-06
6.474902e-07
3.3682498e-07
1.3918889e-07
4.9742494e-08
1.5851984e-08
4.6000075e-09
1.2209546e-09
2.9255463e-10
6.1310905e-11
1.065398e-11
1.4496442e-12
2.0932415e-13
1.1902478e-13
1.272483e-13
3.6590795e-05
1.12364e-05
7.0800272e-06
5.9672887e-06
8.3805602e-06
1.0676504e-05
1.1743385e-05
1.1887386e-05
1.1294568e-05
1.0935004e-05
8.053776e-06
4.5194072e-06
3.4312164e-06
2.6016726e-06
1.6559791e-06
1.0570761e-06
6.4527411e-07
3.3538872e-07
1.3853632e-07
4.9495734e-08
1.5771165e-08
4.5763417e-09
1.2146777e-09
2.9105874e-10
6.0999897e-11
1.0600613e-11
1.4426976e-12
2.0859229e-13
1.18773e-13
1.2697156e-13
3.6686787e-05
1.1256893e-05
7.094161e-06
5.9587852e-06
8.3557154e-06
1.06492e-05
1.1715112e-05
1.1860259e-05
1.1268384e-05
1.0908153e-05
8.0347644e-06
4.5081944e-06
3.4238396e-06
2.5932047e-06
1.6506195e-06
1.0536741e-06
6.4306226e-07
3.3395625e-07
1.3788579e-07
4.9249825e-08
1.5690636e-08
4.5527618e-09
1.2084234e-09
2.8956811e-10
6.0689958e-11
1.0547424e-11
1.4357726e-12
2.0786174e-13
1.1852093e-13
1.2669464e-13
3.6782689e-05
1.1277244e-05
7.1082543e-06
5.9503996e-06
8.3309794e-06
1.062191e-05
1.1686858e-05
1.1833148e-05
1.1242226e-05
1.0881336e-05
8.0157588e-06
4.4969906e-06
3.4164728e-06
2.5847604e-06
1.6452733e-06
1.0502785e-06
6.4085479e-07
3.3252774e-07
1.3723736e-07
4.900478e-08
1.5610401e-08
4.5292679e-09
1.2021915e-09
2.880827e-10
6.0381069e-11
1.0494408e-11
1.4288684e-12
2.0713243e-13
1.1826858e-13
1.2641756e-13
3.6878457e-05
1.1297437e-05
7.1222937e-06
5.9421314e-06
8.3063508e-06
1.0594634e-05
1.1658622e-05
1.1806049e-05
1.121609e-05
1.0854552e-05
7.9967632e-06
4.4857978e-06
3.4091166e-06
2.5763399e-06
1.639941e-06
1.04689e-06
6.3865229e-07
3.3110365e-07
1.3659129e-07
4.8760717e-08
1.5530502e-08
4.5058736e-09
1.1959859e-09
2.8660346e-10
6.007344e-11
1.0441603e-11
1.4219903e-12
2.0640505e-13
1.1801628e-13
1.2614066e-13
3.6974049e-05
1.1317437e-05
7.1362795e-06
5.933978e-06
8.2818282e-06
1.0567373e-05
1.1630401e-05
1.1778961e-05
1.1189976e-05
1.0827798e-05
7.9777813e-06
4.4746175e-06
3.4017712e-06
2.5679433e-06
1.6346228e-06
1.0435087e-06
6.3645475e-07
3.2968401e-07
1.3594757e-07
4.851762e-08
1.545093e-08
4.4825758e-09
1.1898056e-09
2.8513014e-10
5.9767013e-11
1.0388997e-11
1.4151365e-12
2.0567932e-13
1.1776383e-13
1.2586375e-13
3.7069423e-05
1.1337219e-05
7.1502129e-06
5.9259393e-06
8.2574102e-06
1.0540128e-05
1.1602196e-05
1.1751883e-05
1.1163882e-05
1.0801067e-05
7.9588189e-06
4.4634509e-06
3.3944366e-06
2.5595712e-06
1.6293194e-06
1.0401352e-06
6.3426262e-07
3.2826911e-07
1.3530637e-07
4.8275561e-08
1.5371715e-08
4.4593835e-09
1.1836532e-09
2.8366341e-10
5.9461935e-11
1.0336619e-11
1.4083113e-12
2.0495594e-13
1.1751173e-13
1.2558733e-13
3.716454e-05
1.1356772e-05
7.1640839e-06
5.9180164e-06
8.233096e-06
1.0512895e-05
1.1574005e-05
1.1724813e-05
1.1137806e-05
1.0774395e-05
7.9398814e-06
4.4522989e-06
3.3871131e-06
2.5512236e-06
1.6240306e-06
1.0367694e-06
6.320757e-07
3.2685875e-07
1.3466754e-07
4.8034479e-08
1.5292829e-08
4.4362883e-09
1.1775262e-09
2.822026e-10
5.9158058e-11
1.0284441e-11
1.4015105e-12
2.0423446e-13
1.1725978e-13
1.2531119e-13
3.7259363e-05
1.1376099e-05
7.1778884e-06
5.9102052e-06
8.208885e-06
1.0485675e-05
1.1545826e-05
1.1697746e-05
1.1111747e-05
1.0747762e-05
7.920961e-06
4.441162e-06
3.3798008e-06
2.5429007e-06
1.6187568e-06
1.0334118e-06
6.2989444e-07
3.2545331e-07
1.3403131e-07
4.7794471e-08
1.5214311e-08
4.4133021e-09
1.1714281e-09
2.807486e-10
5.8855575e-11
1.0232497e-11
1.3947392e-12
2.0351542e-13
1.1700819e-13
1.2503557e-13
3.7353856e-05
1.1395209e-05
7.1916226e-06
5.9025012e-06
8.1847762e-06
1.0458471e-05
1.1517659e-05
1.1670685e-05
1.1085704e-05
1.0721166e-05
7.9020604e-06
4.4300406e-06
3.3724999e-06
2.5346024e-06
1.6134982e-06
1.0300622e-06
6.277187e-07
3.2405265e-07
1.3339758e-07
4.7555483e-08
1.5136138e-08
4.3904176e-09
1.1653567e-09
2.7930085e-10
5.8554363e-11
1.0180766e-11
1.3879939e-12
2.0279831e-13
1.1675664e-13
1.2476013e-13
3.7447985e-05
1.1414113e-05
7.205282e-06
5.8949053e-06
8.1607692e-06
1.043128e-05
1.1489504e-05
1.1643627e-05
1.1059675e-05
1.06946e-05
7.8831814e-06
4.4189352e-06
3.3652105e-06
2.5263293e-06
1.6082552e-06
1.0267214e-06
6.25549e-07
3.2265705e-07
1.327665e-07
4.7317587e-08
1.5058337e-08
4.3676436e-09
1.1593145e-09
2.7786e-10
5.8254569e-11
1.0129273e-11
1.3812788e-12
2.020839e-13
1.1650569e-13
1.2448543e-13
3.7541719e-05
1.1432819e-05
7.2188703e-06
5.8874179e-06
8.1368636e-06
1.0404099e-05
1.1461357e-05
1.1616572e-05
1.1033658e-05
1.0668065e-05
7.8643194e-06
4.4078453e-06
3.3579326e-06
2.5180813e-06
1.6030277e-06
1.0233889e-06
6.2338503e-07
3.212663e-07
1.3213793e-07
4.7080707e-08
1.4980879e-08
4.34497e-09
1.1532986e-09
2.7642528e-10
5.7956013e-11
1.0077986e-11
1.3745892e-12
2.0137161e-13
1.1625508e-13
1.2421122e-13
3.7635027e-05
1.1451312e-05
7.2323852e-06
5.8800367e-06
8.1130591e-06
1.0376932e-05
1.1433219e-05
1.1589516e-05
1.1007654e-05
1.0641562e-05
7.8454756e-06
4.3967714e-06
3.3506665e-06
2.5098585e-06
1.597816e-06
1.0200652e-06
6.2122724e-07
3.1988077e-07
1.3151208e-07
4.684495e-08
1.4903805e-08
4.3224102e-09
1.1473129e-09
2.7499767e-10
5.7658918e-11
1.0026946e-11
1.3679306e-12
2.0066205e-13
1.1600502e-13
1.2393772e-13
3.7727884e-05
1.1469557e-05
7.2458201e-06
5.8727637e-06
8.0893552e-06
1.0349779e-05
1.1405091e-05
1.156246e-05
1.0981662e-05
1.061509e-05
7.82665e-06
4.3857133e-06
3.3434121e-06
2.5016608e-06
1.5926199e-06
1.0167502e-06
6.1907537e-07
3.1850031e-07
1.3088886e-07
4.6610258e-08
1.482709e-08
4.2999562e-09
1.1413548e-09
2.7357657e-10
5.7363146e-11
9.976127e-12
1.3612994e-12
1.9995461e-13
1.1575512e-13
1.236645e-13
3.7820262e-05
1.1487529e-05
7.2592056e-06
5.865603e-06
8.0657518e-06
1.0322638e-05
1.137697e-05
1.1535403e-05
1.0955678e-05
1.0588646e-05
7.8078402e-06
4.3746709e-06
3.3361694e-06
2.4934888e-06
1.58744e-06
1.0134442e-06
6.1692985e-07
3.1712516e-07
1.3026839e-07
4.6376696e-08
1.4750759e-08
4.2776163e-09
1.1354271e-09
2.7216263e-10
5.7068849e-11
9.9255574e-12
1.3546998e-12
1.9925002e-13
1.1550587e-13
1.233921e-13
3.791214e-05
1.1505218e-05
7.2725279e-06
5.8585532e-06
8.0422489e-06
1.0295511e-05
1.1348858e-05
1.1508347e-05
1.0929705e-05
1.0562232e-05
7.7890463e-06
4.3636439e-06
3.3289385e-06
2.4853426e-06
1.5822759e-06
1.010147e-06
6.1479027e-07
3.1575499e-07
1.2965048e-07
4.6144164e-08
1.4674775e-08
4.2553779e-09
1.1295259e-09
2.7075489e-10
5.677581e-11
9.8751977e-12
1.3481263e-12
1.9854767e-13
1.1525701e-13
1.2312023e-13
3.8003497e-05
1.1522627e-05
7.2857605e-06
5.8516108e-06
8.0188463e-06
1.0268401e-05
1.1320756e-05
1.148129e-05
1.0903743e-05
1.0535859e-05
7.7702676e-06
4.3526322e-06
3.3217196e-06
2.4772221e-06
1.5771281e-06
1.006859e-06
6.1265707e-07
3.1439017e-07
1.2903534e-07
4.5912772e-08
1.459918e-08
4.233255e-09
1.1236554e-09
2.693544e-10
5.6484261e-11
9.8250897e-12
1.3415845e-12
1.978481e-13
1.1500872e-13
1.2284907e-13
3.8094313e-05
1.153977e-05
7.2989047e-06
5.8447769e-06
7.9955439e-06
1.0241306e-05
1.1292659e-05
1.1454228e-05
1.0877788e-05
1.0509515e-05
7.7515029e-06
4.3416356e-06
3.3145128e-06
2.4691274e-06
1.5719965e-06
1.00358e-06
6.1052996e-07
3.1303045e-07
1.2842281e-07
4.5682434e-08
1.452394e-08
4.2112364e-09
1.1178122e-09
2.6796033e-10
5.6194018e-11
9.7752001e-12
1.3350697e-12
1.9715054e-13
1.1476048e-13
1.2257809e-13
3.8184572e-05
1.1556665e-05
7.3119628e-06
5.8380525e-06
7.972342e-06
1.0214224e-05
1.1264569e-05
1.1427163e-05
1.0851841e-05
1.0483194e-05
7.732752e-06
4.3306537e-06
3.3073181e-06
2.4610592e-06
1.5668818e-06
1.0003106e-06
6.0840946e-07
3.1167605e-07
1.2781303e-07
4.5453219e-08
1.4449082e-08
4.1893314e-09
1.1119992e-09
2.6657339e-10
5.5905243e-11
9.7255588e-12
1.3285864e-12
1.964559e-13
1.1451295e-13
1.2230799e-13
3.8274261e-05
1.1573318e-05
7.3249283e-06
5.8314344e-06
7.9492409e-06
1.018716e-05
1.1236486e-05
1.1400096e-05
1.0825903e-05
1.0456893e-05
7.7140142e-06
4.3196862e-06
3.3001355e-06
2.4530172e-06
1.5617836e-06
9.9705048e-07
6.0629521e-07
3.1032669e-07
1.272058e-07
4.5225024e-08
1.4374565e-08
4.1675259e-09
1.1062121e-09
2.6519249e-10
5.5617689e-11
9.6761209e-12
1.3221283e-12
1.9576344e-13
1.1426585e-13
1.2203845e-13
3.8363368e-05
1.1589728e-05
7.3378057e-06
5.8249236e-06
7.9262402e-06
1.0160113e-05
1.120841e-05
1.1373024e-05
1.0799971e-05
1.0430621e-05
7.6952887e-06
4.3087329e-06
3.2929653e-06
2.4450018e-06
1.5567024e-06
9.9380021e-07
6.041878e-07
3.0898286e-07
1.2660141e-07
4.4997989e-08
1.4300443e-08
4.1458375e-09
1.1004561e-09
2.6381895e-10
5.5331651e-11
9.6269396e-12
1.3157028e-12
1.9507393e-13
1.1401942e-13
1.2176973e-13
3.8451882e-05
1.1605871e-05
7.3505978e-06
5.8185261e-06
7.9033405e-06
1.0133081e-05
1.1180339e-05
1.1345946e-05
1.0774049e-05
1.0404379e-05
7.6765755e-06
4.2977934e-06
3.2858073e-06
2.4370127e-06
1.5516379e-06
9.9055946e-07
6.0208689e-07
3.0764434e-07
1.2599971e-07
4.4772031e-08
1.4226682e-08
4.1242552e-09
1.0947279e-09
2.6245192e-10
5.504694e-11
9.5779802e-12
1.3093048e-12
1.9438652e-13
1.1377311e-13
1.2150125e-13
3.8539797e-05
1.1621708e-05
7.3632966e-06
5.812243e-06
7.880542e-06
1.0106069e-05
1.1152276e-05
1.1318866e-05
1.0748137e-05
1.0378164e-05
7.6578739e-06
4.2868674e-06
3.2786618e-06
2.4290509e-06
1.5465907e-06
9.8732882e-07
5.9999301e-07
3.0631142e-07
1.2540088e-07
4.4547243e-08
1.415332e-08
4.1027912e-09
1.0890312e-09
2.6109238e-10
5.4763773e-11
9.5292829e-12
1.3029401e-12
1.9370224e-13
1.135276e-13
1.2123373e-13
3.8627106e-05
1.1637235e-05
7.3759023e-06
5.8060726e-06
7.8578447e-06
1.007908e-05
1.1124222e-05
1.1291783e-05
1.0722235e-05
1.0351976e-05
7.6391829e-06
4.2759541e-06
3.2715285e-06
2.4211159e-06
1.5415603e-06
9.8410761e-07
5.979055e-07
3.0498361e-07
1.2480463e-07
4.432348e-08
1.4080298e-08
4.0814265e-09
1.0833604e-09
2.5973886e-10
5.4481827e-11
9.4807891e-12
1.2966008e-12
1.9302011e-13
1.1328246e-13
1.2096671e-13
3.8713806e-05
1.1652457e-05
7.3884136e-06
5.8000173e-06
7.8352491e-06
1.0052112e-05
1.1096176e-05
1.1264697e-05
1.0696342e-05
1.0325817e-05
7.6205023e-06
4.2650533e-06
3.2644079e-06
2.4132079e-06
1.5365472e-06
9.8089642e-07
5.9582494e-07
3.0366141e-07
1.2421124e-07
4.4100886e-08
1.4007674e-08
4.06018e-09
1.0777211e-09
2.583928e-10
5.420142e-11
9.4325565e-12
1.2902945e-12
1.9234094e-13
1.1303794e-13
1.2070046e-13
3.8799897e-05
1.1667378e-05
7.4008235e-06
5.7940773e-06
7.8127557e-06
1.0025166e-05
1.1068136e-05
1.1237605e-05
1.0670458e-05
1.0299685e-05
7.6018319e-06
4.2541646e-06
3.2572998e-06
2.4053269e-06
1.5315512e-06
9.7769494e-07
5.9375093e-07
3.0234452e-07
1.2362052e-07
4.3879356e-08
1.3935406e-08
4.039038e-09
1.0721091e-09
2.5705316e-10
5.3922321e-11
9.3845425e-12
1.2840153e-12
1.9166372e-13
1.1279341e-13
1.204343e-13
3.8885378e-05
1.1682011e-05
7.4131346e-06
5.7882497e-06
7.7903649e-06
9.9982457e-06
1.1040103e-05
1.1210509e-05
1.064458e-05
1.027358e-05
7.5831712e-06
4.2432878e-06
3.2502043e-06
2.3974736e-06
1.5265729e-06
9.7450391e-07
5.916841e-07
3.0103323e-07
1.2303265e-07
4.3658986e-08
1.3863534e-08
4.0180136e-09
1.0665285e-09
2.5572098e-10
5.3644763e-11
9.3367905e-12
1.2777694e-12
1.9098964e-13
1.1254966e-13
1.201691e-13
3.8970252e-05
1.169637e-05
7.4253451e-06
5.7825349e-06
7.7680769e-06
9.97135e-06
1.1012078e-05
1.1183408e-05
1.0618709e-05
1.0247499e-05
7.5645203e-06
4.2324222e-06
3.2431216e-06
2.3896478e-06
1.5216121e-06
9.7132275e-07
5.8962385e-07
2.9972707e-07
1.2244732e-07
4.3439619e-08
1.3791993e-08
3.9970857e-09
1.0609729e-09
2.5439462e-10
5.3368384e-11
9.289235e-12
1.271548e-12
1.9031765e-13
1.1230631e-13
1.199044e-13
3.9054524e-05
1.1710458e-05
7.4374492e-06
5.7769357e-06
7.7458924e-06
9.9444793e-06
1.0984059e-05
1.1156302e-05
1.0592846e-05
1.0221446e-05
7.5458791e-06
4.2215679e-06
3.2360517e-06
2.3818499e-06
1.516669e-06
9.6815219e-07
5.8757092e-07
2.9842665e-07
1.2186491e-07
4.3221434e-08
1.3720854e-08
3.976277e-09
1.0554491e-09
2.5307581e-10
5.3093565e-11
9.2419444e-12
1.2653603e-12
1.8964873e-13
1.1206366e-13
1.1964055e-13
3.9138201e-05
1.1724258e-05
7.4494497e-06
5.7714527e-06
7.7238117e-06
9.9176364e-06
1.0956048e-05
1.1129192e-05
1.0566992e-05
1.0195425e-05
7.5272479e-06
4.2107242e-06
3.2289949e-06
2.3740796e-06
1.5117435e-06
9.6499179e-07
5.8552485e-07
2.9713168e-07
1.2128521e-07
4.3004324e-08
1.3650074e-08
3.9555734e-09
1.0499528e-09
2.5176346e-10
5.2820062e-11
9.1948744e-12
1.2591999e-12
1.8898183e-13
1.1182102e-13
1.1937683e-13
3.9221289e-05
1.1737734e-05
7.4613456e-06
5.7660886e-06
7.7018353e-06
9.8908235e-06
1.0928046e-05
1.1102078e-05
1.0541151e-05
1.0169434e-05
7.5086264e-06
4.1998906e-06
3.221951e-06
2.3663377e-06
1.5068363e-06
9.6184219e-07
5.8348627e-07
2.9584246e-07
1.2070843e-07
4.2788399e-08
1.3579697e-08
3.9349897e-09
1.0444885e-09
2.5045873e-10
5.2548139e-11
9.1480735e-12
1.2530739e-12
1.8831817e-13
1.1157923e-13
1.191141e-13
3.93038e-05
1.1750865e-05
7.4731292e-06
5.7608466e-06
7.6799636e-06
9.8640422e-06
1.0900052e-05
1.1074961e-05
1.0515319e-05
1.0143473e-05
7.4900145e-06
4.1890663e-06
3.2149203e-06
2.3586239e-06
1.5019466e-06
9.5870267e-07
5.8145444e-07
2.9455848e-07
1.2013422e-07
4.2573487e-08
1.3509654e-08
3.9145032e-09
1.0390495e-09
2.4915989e-10
5.2277408e-11
9.1014714e-12
1.2469727e-12
1.8765662e-13
1.113378e-13
1.1885185e-13
3.9385744e-05
1.1763654e-05
7.4847986e-06
5.755725e-06
7.6581971e-06
9.8372968e-06
1.087207e-05
1.1047842e-05
1.0489501e-05
1.0117544e-05
7.4714121e-06
4.1782509e-06
3.2079027e-06
2.3509382e-06
1.497075e-06
9.5557377e-07
5.7942995e-07
2.9328026e-07
1.1956294e-07
4.2359754e-08
1.3440012e-08
3.8941357e-09
1.0336422e-09
2.4786858e-10
5.2008237e-11
9.0551349e-12
1.2409053e-12
1.869981e-13
1.1109701e-13
1.1859039e-13
3.9467136e-05
1.1776109e-05
7.4963551e-06
5.7507242e-06
7.6365362e-06
9.8105876e-06
1.0844098e-05
1.1020721e-05
1.0463699e-05
1.0091648e-05
7.4528191e-06
4.1674435e-06
3.2008985e-06
2.3432807e-06
1.492221e-06
9.5245502e-07
5.7741225e-07
2.9200737e-07
1.189943e-07
4.2147074e-08
1.3370721e-08
3.873871e-09
1.0282619e-09
2.4658361e-10
5.1740359e-11
9.0090152e-12
1.2348647e-12
1.8634148e-13
1.1085614e-13
1.1832893e-13
3.9547989e-05
1.1788233e-05
7.5077926e-06
5.7458449e-06
7.6149816e-06
9.7839146e-06
1.0816135e-05
1.0993599e-05
1.0437909e-05
1.0065783e-05
7.4342355e-06
4.1566437e-06
3.1939076e-06
2.3356521e-06
1.4873854e-06
9.4934716e-07
5.7540199e-07
2.9074012e-07
1.1842851e-07
4.1935542e-08
1.330182e-08
3.8537226e-09
1.0229127e-09
2.4530605e-10
5.1474017e-11
8.9631575e-12
1.2288575e-12
1.8568799e-13
1.1061604e-13
1.180684e-13
3.9628319e-05
1.1800038e-05
7.519109e-06
5.7410845e-06
7.5935337e-06
9.7572824e-06
1.0788182e-05
1.0966475e-05
1.0412129e-05
1.0039949e-05
7.4156617e-06
4.1458508e-06
3.1869303e-06
2.3280522e-06
1.4825676e-06
9.4624957e-07
5.7339856e-07
2.8947806e-07
1.1786524e-07
4.1724998e-08
1.3233245e-08
3.8336685e-09
1.0175879e-09
2.4403419e-10
5.120883e-11
8.9174926e-12
1.2228745e-12
1.8503658e-13
1.1037634e-13
1.1780838e-13
3.9708146e-05
1.1811537e-05
7.5303071e-06
5.7364438e-06
7.5721928e-06
9.7306921e-06
1.076024e-05
1.093935e-05
1.0386362e-05
1.0014148e-05
7.3970985e-06
4.1350646e-06
3.1799669e-06
2.3204811e-06
1.4777682e-06
9.4316301e-07
5.7140275e-07
2.8822183e-07
1.173049e-07
4.1515632e-08
1.3165068e-08
3.8137331e-09
1.0122948e-09
2.4276986e-10
5.0945204e-11
8.8720936e-12
1.2169254e-12
1.8438828e-13
1.1013735e-13
1.1754921e-13
3.9787487e-05
1.1822725e-05
7.5413835e-06
5.731925e-06
7.5509595e-06
9.7041423e-06
1.0732307e-05
1.0912224e-05
1.0360609e-05
9.9883837e-06
7.3785465e-06
4.1242845e-06
3.1730176e-06
2.3129387e-06
1.4729869e-06
9.4008704e-07
5.6941406e-07
2.869711e-07
1.1674727e-07
4.1307337e-08
1.3097249e-08
3.7939019e-09
1.0070291e-09
2.4151197e-10
5.0682892e-11
8.8269155e-12
1.2110037e-12
1.8374201e-13
1.0989838e-13
1.1729015e-13
3.9866364e-05
1.1833575e-05
7.5523339e-06
5.7275282e-06
7.5298342e-06
9.6776389e-06
1.0704385e-05
1.0885096e-05
1.0334872e-05
9.9626556e-06
7.3600062e-06
4.1135098e-06
3.1660826e-06
2.3054256e-06
1.4682242e-06
9.3702226e-07
5.6743307e-07
2.8572619e-07
1.1619255e-07
4.1100214e-08
1.3029826e-08
3.7741891e-09
1.0017949e-09
2.4026162e-10
5.0422148e-11
8.782005e-12
1.2051163e-12
1.8309898e-13
1.0966023e-13
1.1703206e-13
3.9944799e-05
1.1844053e-05
7.5631582e-06
5.723256e-06
7.508817e-06
9.6511856e-06
1.0676476e-05
1.085797e-05
1.0309152e-05
9.9369636e-06
7.3414781e-06
4.1027393e-06
3.159162e-06
2.2979416e-06
1.4634797e-06
9.3396786e-07
5.6545899e-07
2.8448651e-07
1.1564038e-07
4.0894086e-08
1.2962732e-08
3.7545716e-09
9.9658564e-10
2.3901706e-10
5.016258e-11
8.7372915e-12
1.1992536e-12
1.8245803e-13
1.0942242e-13
1.1677441e-13
4.0022814e-05
1.1854148e-05
7.573852e-06
5.7191111e-06
7.4879083e-06
9.6247805e-06
1.064858e-05
1.0830847e-05
1.0283451e-05
9.911311e-06
7.3229623e-06
4.0919722e-06
3.1522561e-06
2.2904869e-06
1.4587535e-06
9.3092439e-07
5.6349242e-07
2.8325257e-07
1.1509109e-07
4.0689113e-08
1.2896029e-08
3.7350702e-09
9.9140732e-10
2.3777989e-10
4.9904544e-11
8.6928392e-12
1.1934241e-12
1.8182008e-13
1.0918524e-13
1.1651752e-13
4.0100435e-05
1.1863861e-05
7.5844095e-06
5.7150904e-06
7.4671086e-06
9.5984293e-06
1.0620696e-05
1.0803726e-05
1.025777e-05
9.8856993e-06
7.3044597e-06
4.0812074e-06
3.1453651e-06
2.2830611e-06
1.4540452e-06
9.2789136e-07
5.6153282e-07
2.82024e-07
1.1454443e-07
4.0485181e-08
1.2829672e-08
3.7156702e-09
9.8625566e-10
2.3654899e-10
4.964779e-11
8.6486027e-12
1.1876215e-12
1.8118406e-13
1.0894801e-13
1.1626068e-13
4.0177688e-05
1.1873197e-05
7.5948292e-06
5.7111917e-06
7.4464179e-06
9.5721373e-06
1.0592827e-05
1.0776608e-05
1.0232112e-05
9.8601289e-06
7.2859706e-06
4.0704437e-06
3.1384894e-06
2.2756651e-06
1.4493555e-06
9.2486937e-07
5.595807e-07
2.8080104e-07
1.1400057e-07
4.0282371e-08
1.2763695e-08
3.6963833e-09
9.8113417e-10
2.3532528e-10
4.9392532e-11
8.6046216e-12
1.1818516e-12
1.8055107e-13
1.0871149e-13
1.1600468e-13
4.0254598e-05
1.1882163e-05
7.6051091e-06
5.7074166e-06
7.4258364e-06
9.5459031e-06
1.0564972e-05
1.0749494e-05
1.0206475e-05
9.8345993e-06
7.2674956e-06
4.0596798e-06
3.1316293e-06
2.2682986e-06
1.4446839e-06
9.2185779e-07
5.5763547e-07
2.7958319e-07
1.1345918e-07
4.0080525e-08
1.2698036e-08
3.6771885e-09
9.7603672e-10
2.341072e-10
4.9138416e-11
8.5608321e-12
1.1761057e-12
1.7992015e-13
1.0847536e-13
1.1574916e-13
4.0331195e-05
1.1890773e-05
7.6152438e-06
5.703763e-06
7.4053646e-06
9.51973e-06
1.0537131e-05
1.0722383e-05
1.0180856e-05
9.8091136e-06
7.2490362e-06
4.0489148e-06
3.1247853e-06
2.2609614e-06
1.4400306e-06
9.1885731e-07
5.5569787e-07
2.7837107e-07
1.1292064e-07
3.9879819e-08
1.2632761e-08
3.6581081e-09
9.7096979e-10
2.3289639e-10
4.8885813e-11
8.5173008e-12
1.1703928e-12
1.7929225e-13
1.0823989e-13
1.1549444e-13
4.0407507e-05
1.1899041e-05
7.6252337e-06
5.7002268e-06
7.3850025e-06
9.4936211e-06
1.0509302e-05
1.0695276e-05
1.015526e-05
9.783674e-06
7.2305936e-06
4.0381475e-06
3.1179578e-06
2.2536535e-06
1.4353956e-06
9.1586756e-07
5.5376749e-07
2.7716439e-07
1.1238476e-07
3.9680159e-08
1.2567835e-08
3.6391297e-09
9.6592967e-10
2.316919e-10
4.8634503e-11
8.4739877e-12
1.1647072e-12
1.786664e-13
1.0800447e-13
1.1523986e-13
4.0483565e-05
1.1906967e-05
7.635078e-06
5.6968114e-06
7.36475e-06
9.4675748e-06
1.0481484e-05
1.0668174e-05
1.0129686e-05
9.7582804e-06
7.2121693e-06
4.0273763e-06
3.1111473e-06
2.2463754e-06
1.4307792e-06
9.1288909e-07
5.5184484e-07
2.7596344e-07
1.1185172e-07
3.9481635e-08
1.2503292e-08
3.6202654e-09
9.6092001e-10
2.3049468e-10
4.8384706e-11
8.430933e-12
1.1590547e-12
1.7804368e-13
1.0776984e-13
1.1498619e-13
4.05594e-05
1.1914521e-05
7.6447687e-06
5.6935205e-06
7.3446075e-06
9.4415924e-06
1.0453676e-05
1.0641077e-05
1.0104136e-05
9.7329335e-06
7.1937644e-06
4.0165993e-06
3.1043543e-06
2.2391267e-06
1.426181e-06
9.0992116e-07
5.499292e-07
2.7476774e-07
1.1132122e-07
3.9284096e-08
1.2439074e-08
3.6014954e-09
9.5593503e-10
2.2930325e-10
4.8136088e-11
8.3880767e-12
1.1534272e-12
1.774231e-13
1.0753558e-13
1.1473301e-13
4.0635044e-05
1.1921669e-05
7.6543055e-06
5.6903534e-06
7.3245746e-06
9.4156791e-06
1.0425877e-05
1.0613988e-05
1.0078614e-05
9.7076375e-06
7.1753803e-06
4.0058149e-06
3.0975794e-06
2.2319074e-06
1.4216011e-06
9.0696418e-07
5.4802105e-07
2.7357768e-07
1.1079351e-07
3.9087677e-08
1.2375234e-08
3.5828375e-09
9.5097993e-10
2.2811894e-10
4.788895e-11
8.3454732e-12
1.1478319e-12
1.7680541e-13
1.073019e-13
1.1448052e-13
4.0710529e-05
1.1928407e-05
7.6636856e-06
5.6873111e-06
7.3046513e-06
9.3898379e-06
1.039809e-05
1.0586905e-05
1.0053122e-05
9.6823934e-06
7.1570185e-06
3.9950222e-06
3.090823e-06
2.2247174e-06
1.417039e-06
9.0401761e-07
5.4611982e-07
2.7239288e-07
1.1026837e-07
3.8892263e-08
1.2311728e-08
3.5642774e-09
9.4605058e-10
2.269407e-10
4.7643057e-11
8.3030798e-12
1.1422628e-12
1.7618961e-13
1.0706817e-13
1.1422805e-13
4.078589e-05
1.1934733e-05
7.6728991e-06
5.6843934e-06
7.2848376e-06
9.3640488e-06
1.0370313e-05
1.0559844e-05
1.0027658e-05
9.6571896e-06
7.138679e-06
3.9842516e-06
3.0840858e-06
2.2175571e-06
1.4124953e-06
9.0108204e-07
5.4422602e-07
2.7121355e-07
1.0974593e-07
3.8697927e-08
1.2248585e-08
3.5458256e-09
9.411501e-10
2.2576936e-10
4.7398599e-11
8.2609317e-12
1.1367252e-12
1.7557673e-13
1.0683513e-13
1.139764e-13
4.0861161e-05
1.1940645e-05
7.681944e-06
5.681596e-06
7.2651334e-06
9.3382922e-06
1.0342566e-05
1.0532809e-05
1.0002223e-05
9.6320246e-06
7.1203618e-06
3.9735087e-06
3.077368e-06
2.2104261e-06
1.4079695e-06
8.9815682e-07
5.4233903e-07
2.700392e-07
1.0922588e-07
3.8504519e-08
1.2185748e-08
3.5274624e-09
9.3627281e-10
2.2460344e-10
4.7155247e-11
8.2189697e-12
1.131211e-12
1.7496587e-13
1.0660245e-13
1.137252e-13
4.0936376e-05
1.194615e-05
7.6908221e-06
5.6789176e-06
7.2455386e-06
9.3125676e-06
1.0314847e-05
1.0505803e-05
9.9768208e-06
9.6069022e-06
7.1020681e-06
3.9627947e-06
3.0706699e-06
2.2033244e-06
1.4034619e-06
8.9524259e-07
5.4045952e-07
2.6887038e-07
1.0870856e-07
3.8312202e-08
1.2123279e-08
3.5092084e-09
9.3142465e-10
2.2344449e-10
4.6913342e-11
8.1772553e-12
1.1257286e-12
1.7435791e-13
1.0637041e-13
1.1347475e-13
4.1011572e-05
1.1951255e-05
7.6995249e-06
5.6763577e-06
7.2260535e-06
9.2868732e-06
1.0287156e-05
1.0478826e-05
9.9514491e-06
9.5818233e-06
7.0837985e-06
3.9521116e-06
3.0639917e-06
2.1962517e-06
1.3989723e-06
8.9233896e-07
5.385871e-07
2.6770685e-07
1.081938e-07
3.8120884e-08
1.2061141e-08
3.4910515e-09
9.2660206e-10
2.2229156e-10
4.6672675e-11
8.1357501e-12
1.1202723e-12
1.7375191e-13
1.061384e-13
1.1322441e-13
4.1086783e-05
1.195597e-05
7.708043e-06
5.6739117e-06
7.2066779e-06
9.2612114e-06
1.0259494e-05
1.0451877e-05
9.9261079e-06
9.5567875e-06
7.0655542e-06
3.9414635e-06
3.0573336e-06
2.1892087e-06
1.3945012e-06
8.8944659e-07
5.3672238e-07
2.6654892e-07
1.076818e-07
3.7930665e-08
1.1999374e-08
3.4730049e-09
9.2180899e-10
2.211457e-10
4.6433479e-11
8.0944968e-12
1.1148484e-12
1.7314901e-13
1.059072e-13
1.1297501e-13
4.1162046e-05
1.1960303e-05
7.71638e-06
5.6715781e-06
7.1874116e-06
9.2355815e-06
1.0231862e-05
1.0424957e-05
9.9007989e-06
9.5317951e-06
7.0473358e-06
3.9308491e-06
3.0506958e-06
2.1821949e-06
1.390048e-06
8.8656473e-07
5.3486466e-07
2.653961e-07
1.0717225e-07
3.7741393e-08
1.1937919e-08
3.4550486e-09
9.1703948e-10
2.2000535e-10
4.6195408e-11
8.0534329e-12
1.1094483e-12
1.7254816e-13