/*--------------------------------*- C++ -*----------------------------------*\
| =========                 |                                                 |
| \\      /  F ield         | OpenFOAM: The Open Source CFD Toolbox           |
|  \\    /   O peration     | Version:  v2012                                 |
|   \\  /    A nd           | Website:  www.openfoam.com                      |
|    \\/     M anipulation  |                                                 |
\*---------------------------------------------------------------------------*/
FoamFile
{
    version     2.0;
    format      ascii;
    class       volScalarField;
    location    "550";
    object      omega;
}
// * * * * * * * * * * * * * * * * * * * * * * * * * * * * * * * * * * * * * //

dimensions      [0 0 -1 0 0 0 0];


internalField   nonuniform List<scalar> 
24000
(
3002.4198
5342.6088
12901.911
36666.118
84163.294
128568.31
166833.79
195363.35
208196.87
203052.4
211485.17
332324.4
653382.9
1079587.4
1571758.9
2063844.3
2593726
3288968.4
4368191.3
6175024.9
9262727.7
14590967
23968158
41086685
74192244
1.4394233e+08
3.1097359e+08
7.9940565e+08
2.7944706e+09
1.8660291e+10
2996.4317
5331.1612
12863.095
36493.645
83865.296
128274.21
166557.34
195119.03
208023.62
202944.12
211319.33
331886.53
652447.99
1078437.1
1570297.8
2062113.5
2591864.9
3287049.7
4366225.5
6172986.2
9260537.5
14588442
23964794
41081344
74182313
1.4392109e+08
3.1092003e+08
7.9923345e+08
2.7936416e+09
1.8658898e+10
2990.432
5319.2005
12821.023
36329.536
83617.617
128061.78
166372.52
194968.74
207935.62
202871.78
211179.71
331598
651849.19
1077646.3
1569085.5
2060509.6
2590110.3
3285412
4364883.5
6171966.8
9259743.9
14587734
23964047
41080465
74181205
1.4391956e+08
3.1091775e+08
7.9923019e+08
2.7936434e+09
1.8658683e+10
2984.3267
5307.0069
12779.129
36169.399
83374.221
127843.68
166173.54
194805.82
207823.78
202774.68
211035.91
331351.79
651387.82
1077015.9
1568000.9
2058975.1
2588362.8
3283725.4
4363501.8
6171075.6
9259465.6
14588158
23965288
41082741
74184899
1.4392513e+08
3.1092444e+08
7.9922497e+08
2.7934823e+09
1.8660128e+10
2978.1497
5294.6763
12737.12
36010.515
83131.895
127624.33
165978.91
194645.07
207709.34
202671.54
210895.48
331154.04
651067.48
1076573.2
1567106.7
2057597.2
2586731.1
3282123.1
4362172.3
6170187.9
9259132.2
14588497
23966513
41085283
74189636
1.4393389e+08
3.1094113e+08
7.9925761e+08
2.7935296e+09
1.866162e+10
2971.9176
5282.2928
12695.25
35852.781
82890.321
127404.71
165786.14
194484.02
207591.2
202563.29
210756.42
330985.29
650840.01
1076260
1566352.3
2056343.8
2585203.3
3280623.8
4360987.6
6169545.1
9259209.6
14589491
23968754
41089422
74196992
1.4394723e+08
3.1096654e+08
7.9930831e+08
2.793614e+09
1.8663804e+10
2965.6447
5269.8936
12653.526
35695.926
82649.157
127185.02
165594.64
194323.16
207471.5
202452.09
210618.57
330836.79
650675.11
1076033.7
1565689.3
2055167.1
2583731.3
3279165.2
4359839.8
6168949.9
9259366
14590629
23971265
41094071
74205340
1.4396261e+08
3.1099666e+08
7.9937234e+08
2.7937526e+09
1.8666212e+10
2959.3412
5257.498
12611.949
35539.813
82408.236
126965.2
165403.93
194162.52
207350.88
202339.02
210481.66
330701.75
650552.23
1075865.9
1565088.6
2054044.1
2582301.1
3277742.7
4358735.7
6168422.7
9259634.3
14591949
23974073
41099214
74214552
1.4397962e+08
3.110302e+08
7.9944486e+08
2.7939193e+09
1.8668832e+10
2953.0145
5245.1151
12570.505
35384.337
82167.43
126745.19
165213.7
194002.06
207229.67
202224.74
210345.52
330575.89
650457.65
1075737.4
1564529.2
2052956.4
2580897.5
3276341.7
4357654.8
6167929.4
9259959
14593365
23977044
41104641
74224279
1.4399764e+08
3.1106594e+08
7.9952318e+08
2.7941074e+09
1.8671574e+10
2946.6703
5232.7493
12529.175
35229.421
81926.65
126524.94
165023.75
193841.74
207108.08
202109.66
210210.01
330456.4
650382.5
1075635.6
1563998
2051893.2
2579512.9
3274956.4
4356591.3
6167462.1
9260326.3
14594852
23980133
41110272
74234374
1.4401637e+08
3.1110322e+08
7.9960553e+08
2.79431e+09
1.8674404e+10
2940.313
5220.4026
12487.943
35075.008
81685.834
126304.42
164833.95
193681.52
206986.24
201994.06
210075.06
330341.4
650320.82
1075552.4
1563486.1
2050846.8
2578141.5
3273581.9
4355539.4
6167011.1
9260720.3
14596383
23983299
41116035
74244707
1.4403557e+08
3.1114154e+08
7.9969063e+08
2.794523e+09
1.8677289e+10
2933.9464
5208.0757
12446.792
34921.051
81444.939
126083.61
164644.17
193521.36
206864.2
201878.11
209940.59
330229.63
650268.67
1075482
1562987.6
2049812.5
2576779.8
3272215.9
4354496.8
6166573.1
9261134.5
14597948
23986519
41121892
74255211
1.440551e+08
3.1118059e+08
7.9977774e+08
2.7947437e+09
1.8680213e+10
2927.5737
5195.7694
12405.709
34767.511
81203.932
125862.48
164454.36
193361.24
206742.03
201761.89
209806.55
330120.25
650223.33
1075420.9
1562498.5
2048786.6
2575425.3
3270856
4353460.7
6166143.8
9261562.1
14599534
23989774
41127811
74265828
1.4407486e+08
3.1122015e+08
7.9986624e+08
2.7949699e+09
1.8683163e+10
2921.1982
5183.4839
12364.681
34614.362
80962.791
125641.02
164264.45
193201.13
206619.74
201645.48
209672.92
330012.65
650182.91
1075366.4
1562015.8
2047766.9
2574076.2
3269501.2
4352430
6165721.5
9261999.8
14601136
23993057
41133776
74276529
1.4409478e+08
3.1126009e+08
7.9995581e+08
2.7952005e+09
1.8686131e+10
2914.8225
5171.2196
12323.697
34461.576
80721.497
125419.22
164074.4
193041.01
206497.36
201528.93
209539.66
329906.4
650145.98
1075316.3
1561537.4
2046751.5
2572731.1
3268150
4351403.1
6165303.5
9262443.3
14602747
23996354
41139766
74287279
1.4411481e+08
3.1130027e+08
8.0004609e+08
2.7954341e+09
1.8689109e+10
2908.4495
5158.9771
12282.747
34309.136
80480.038
125197.07
163884.17
192880.87
206374.9
201412.31
209406.75
329801.18
650111.59
1075269
1561062
2045739.4
2571389.5
3266802.5
4350380
6164889.9
9262892.3
14604365
23999663
41145778
74298068
1.4413492e+08
3.1134065e+08
8.0013695e+08
2.7956704e+09
1.8692093e+10
2902.0816
5146.757
12241.825
34157.023
80238.404
124974.56
163693.74
192720.71
206252.37
201295.62
209274.19
329696.77
650079.02
1075223.5
1560588.3
2044729.6
2570050.4
3265457.5
4349359.6
6164479
9263344.2
14605988
24002978
41151799
74308876
1.4415507e+08
3.1138113e+08
8.0022818e+08
2.7959085e+09
1.869508e+10
2895.7213
5134.5597
12200.923
34005.225
79996.585
124751.69
163503.08
192560.52
206129.78
201178.9
209141.98
329593.01
650047.74
1075179
1560115.8
2043721.5
2568713.7
3264115.3
4348342.2
6164071.2
9263799.4
14607614
24006298
41157829
74319701
1.4417526e+08
3.1142172e+08
8.0031974e+08
2.7961482e+09
1.8698068e+10
2889.3711
5122.3862
12160.035
33853.73
79754.576
124528.45
163312.19
192400.28
206007.12
201062.14
209010.12
329489.76
650017.32
1075135
1559643.5
2042714.5
2567378.7
3262775
4347326.5
6163664.6
9264255
14609239
24009617
41163857
74330523
1.4419544e+08
3.1146232e+08
8.0041145e+08
2.796389e+09
1.8701054e+10
2883.0331
5110.237
12119.157
33702.528
79512.372
124304.83
163121.04
192240.01
205884.39
200945.34
208878.68
329386.95
649987.49
1075091
1559171.2
2041708.2
2566045.4
3261437.1
4346313.3
6163260.3
9264712.3
14610866
24012936
41169885
74341347
1.4421564e+08
3.1150297e+08
8.0050333e+08
2.796631e+09
1.8704038e+10
2876.7096
5098.1129
12078.282
33551.61
79269.966
124080.85
162929.63
192079.7
205761.6
200828.52
208747.76
329284.5
649957.99
1075046.5
1558698.2
2040702.2
2564713.3
3260100.8
4345301.6
6162856.6
9265168.9
14612490
24016250
41175905
74352159
1.4423582e+08
3.115436e+08
8.0059526e+08
2.7968736e+09
1.8707017e+10
2870.4025
5086.0148
12037.406
33400.971
79027.356
123856.48
162737.94
191919.34
205638.74
200711.66
208617.52
329182.38
649928.72
1075001.5
1558224.6
2039696.4
2563382.6
3258766.8
4344292.4
6162455.2
9265627.1
14614115
24019564
41181924
74362970
1.44256e+08
3.1158425e+08
8.006873e+08
2.7971171e+09
1.8709993e+10
2864.1137
5073.9432
11996.526
33250.602
78784.541
123631.73
162545.97
191758.94
205515.82
200594.78
208487.69
329080.55
649899.52
1074955.7
1557749.9
2038690.5
2562052.8
3257434.1
4343284.4
6162053.9
9266083.7
14615736
24022871
41187931
74373762
1.4427615e+08
3.1162485e+08
8.0077933e+08
2.7973611e+09
1.8712964e+10
2857.8451
5061.8989
11955.637
33100.499
78541.515
123406.6
162353.71
191598.51
205392.83
200477.88
208358.35
328979
649870.31
1074908.9
1557274.1
2037684.5
2560724
3256103.5
4342278.7
6161654.5
9266541.3
14617357
24026176
41193933
74384545
1.4429629e+08
3.1166545e+08
8.0087142e+08
2.7976059e+09
1.871593e+10
2851.5982
5049.8825
11914.737
32950.659
78298.277
123181.08
162161.14
191438.04
205269.78
200360.97
208229.52
328877.7
649841.01
1074861.1
1556796.8
2036678
2559395.7
3254773.8
4341273.8
6161255.1
9266997.2
14618973
24029473
41199921
74395305
1.4431639e+08
3.1170599e+08
8.0096343e+08
2.7978509e+09
1.8718889e+10
2845.3746
5037.8945
11873.824
32801.077
78054.827
122955.18
161968.28
191277.53
205146.66
200244.04
208101.09
328776.64
649811.62
1074812.1
1556318.3
2035671.2
2558068.3
3253445.8
4340271.1
6160857.5
9267454.1
14620589
24032767
41205905
74406057
1.4433648e+08
3.1174651e+08
8.0105548e+08
2.7980965e+09
1.8721844e+10
2839.1756
5025.9354
11832.894
32651.75
77811.163
122728.89
161775.11
191117
205023.47
200127.09
207973.09
328675.84
649782.07
1074761.9
1555838.4
2034663.9
2556741.4
3252118.8
4339269
6160459.4
9267908.3
14622199
24036052
41211872
74416782
1.4435652e+08
3.1178695e+08
8.0114742e+08
2.7983423e+09
1.8724791e+10
2833.0024
5014.0055
11791.945
32502.677
77567.281
122502.21
161581.63
190956.44
204900.22
200010.13
207845.51
328575.26
649752.33
1074710.5
1555356.9
2033656.3
2555415.4
3250793.5
4338268.9
6160062.6
9268362.7
14623808
24039332
41217831
74427492
1.4437653e+08
3.1182736e+08
8.0123935e+08
2.7985886e+09
1.8727733e+10
2826.8562
5002.1054
11750.977
32353.856
77323.182
122275.14
161387.83
190795.87
204776.91
199893.15
207718.29
328474.92
649722.33
1074657.5
1554873.7
2032647.9
2554089.8
3249469.2
4337269.3
6159665.2
9268814.3
14625411
24042603
41223773
74438174
1.443965e+08
3.1186769e+08
8.0133116e+08
2.7988351e+09
1.8730666e+10
2820.738
4990.2351
11709.985
32205.285
77078.867
122047.68
161193.71
190635.27
204653.52
199776.14
207591.45
328374.84
649692.16
1074603.3
1554389
2031639.2
2552765.2
3248146.8
4336272
6159269.6
9269266.7
14627013
24045870
41229710
74448846
1.4441645e+08
3.1190799e+08
8.0142298e+08
2.799082e+09
1.8733595e+10
2814.6484
4978.395
11668.969
32056.964
76834.332
121819.82
160999.25
190474.67
204530.07
199659.11
207464.97
328275.01
649661.73
1074547.6
1553902.5
2030629.7
2551441.1
3246825.4
4335275.3
6158873.3
9269716
14628609
24049127
41235628
74459487
1.4443636e+08
3.1194821e+08
8.0151467e+08
2.799329e+09
1.8736516e+10
2808.5883
4966.5853
11627.928
31908.893
76589.578
121591.58
160804.47
190314.06
204406.55
199542.04
207338.81
328175.43
649631.09
1074490.4
1553414.2
2029619.7
2550117.9
3245506
4334280.8
6158478.7
9270165.8
14630204
24052379
41241539
74470116
1.4445624e+08
3.1198839e+08
8.0160636e+08
2.7995766e+09
1.8739431e+10
2802.5582
4954.8059
11586.861
31761.072
76344.605
121362.95
160609.35
190153.45
204282.96
199424.95
207212.99
328076.13
649600.24
1074431.7
1552924
2028608.6
2548794.8
3244187.5
4333287.1
6158083.7
9270613.1
14631792
24055621
41247432
74480715
1.4447607e+08
3.120285e+08
8.0169792e+08
2.7998242e+09
1.8742338e+10
2796.5584
4943.0568
11545.765
31613.503
76099.415
121133.92
160413.88
189992.85
204159.3
199307.82
207087.48
327977.12
649569.22
1074371.6
1552432.1
2027597
2547472.5
3242870.7
4332295.6
6157690.8
9271061.8
14633381
24058862
41253321
74491305
1.4449588e+08
3.1206858e+08
8.0178947e+08
2.8000722e+09
1.8745239e+10
2790.5892
4931.3381
11504.641
31466.186
75854.005
120904.5
160218.07
189832.25
204035.56
199190.65
206962.27
327878.41
649537.99
1074309.9
1551938.2
2026584.4
2546150.3
3241554.5
4331304.4
6157296.8
9271506.8
14634963
24062090
41259189
74501862
1.4451564e+08
3.1210855e+08
8.0188084e+08
2.80032e+09
1.8748131e+10
2784.6508
4919.6495
11463.488
31319.122
75608.377
120674.69
160021.91
189671.67
203911.75
199073.44
206837.35
327780
649506.57
1074246.7
1551442.6
2025571
2544828.7
3240240
4330315.1
6156904.1
9271952.2
14636543
24065314
41265049
74512403
1.4453537e+08
3.1214849e+08
8.0197218e+08
2.8005683e+09
1.8751017e+10
2778.7433
4907.9909
11422.306
31172.315
75362.533
120444.49
159825.38
189511.11
203787.86
198956.2
206712.72
327681.93
649474.95
1074181.9
1550944.9
2024556.7
2543507.1
3238925.7
4329325.7
6156509.8
9272393.4
14638116
24068524
41270888
74522909
1.4455505e+08
3.1218832e+08
8.0206333e+08
2.8008164e+09
1.8753892e+10
2772.8665
4896.3622
11381.094
31025.766
75116.47
120213.9
159628.49
189350.56
203663.89
198838.91
206588.35
327584.21
649443.23
1074115.7
1550445.7
2023542
2542186.4
3237613.4
4328338.5
6156117.6
9272836.1
14639689
24071734
41276722
74533407
1.445747e+08
3.1222812e+08
8.0215448e+08
2.8010649e+09
1.8756763e+10
2767.0203
4884.7632
11339.851
30879.479
74870.191
119982.93
159431.23
189190.05
203539.84
198721.58
206464.24
327486.87
649411.38
1074048
1549944.5
2022526.4
2540866.1
3236301.9
4327351.6
6155724
9273274.5
14641253
24074930
41282535
74543869
1.445943e+08
3.1226782e+08
8.0224544e+08
2.8013133e+09
1.8759624e+10
2761.2043
4873.1934
11298.578
30733.456
74623.699
119751.57
159233.6
189029.58
203415.72
198604.2
206340.39
327389.92
649379.42
1073978.7
1549441.4
2021510.1
2539546.6
3234992.3
4326367.1
6155332.4
9273713.9
14642817
24078122
41288340
74554318
1.4461387e+08
3.1230749e+08
8.023364e+08
2.8015622e+09
1.8762479e+10
2755.4181
4861.6527
11257.275
30587.7
74376.993
119519.82
159035.58
188869.15
203291.51
198486.75
206216.77
327293.37
649347.33
1073907.7
1548936.2
2020492.7
2538227.2
3233683.3
4325382.7
6154939.3
9274149.1
14644373
24081301
41294123
74564731
1.4463338e+08
3.1234705e+08
8.0242717e+08
2.8018109e+09
1.8765324e+10
2749.6613
4850.1407
11215.943
30442.217
74130.077
119287.7
158837.18
188708.76
203167.22
198369.24
206093.38
327197.28
649315.19
1073835.3
1548429.2
2019474.7
2536908.6
3232376.4
4324401
6154549
9274586.7
14645931
24084481
41299905
74575138
1.4465288e+08
3.123866e+08
8.0251796e+08
2.8020601e+09
1.8768165e+10
2743.9331
4838.6569
11174.599
30297.01
73882.951
119055.19
158638.38
188548.43
203042.84
198251.65
205970.22
327101.63
649282.93
1073761.2
1547920.1
2018455.5
2535590
3231069.9
4323419.2
6154156.9
9275019.7
14647480
24087645
41305662
74585506
1.4467232e+08
3.1242602e+08
8.0260852e+08
2.8023091e+09
1.8770996e+10
2738.2328
4827.2011
11133.331
30152.083
73635.619
118822.31
158439.18
188388.16
202918.37
198133.98
205847.26
327006.47
649250.59
1073685.5
1547409.1
2017435.5
2534271.9
3229765
4322439.3
6153766.3
9275453.1
14649027
24090806
41311412
74595859
1.4469172e+08
3.1246541e+08
8.0269906e+08
2.8025585e+09
1.877382e+10
2732.5598
4815.7725
11092.142
30007.44
73388.081
118589.06
158239.57
188227.94
202793.8
198016.23
205724.51
326911.83
649218.18
1073608.1
1546895.9
2016414.3
2532953.6
3228460.2
4321458.9
6153373.5
9275881.4
14650565
24093952
41317136
74606171
1.4471106e+08
3.1250467e+08
8.0278938e+08
2.8028076e+09
1.8776634e+10
2726.9129
4804.3706
11051.032
29863.088
73140.34
118355.45
158039.55
188067.78
202669.13
197898.41
205601.96
326817.77
649185.78
1073529.2
1546380.9
2015392.5
2531636.2
3227157.2
4320480.9
6152983.2
9276311.7
14652105
24097097
41322859
74616478
1.4473039e+08
3.1254391e+08
8.028797e+08
2.8030572e+09
1.8779443e+10
2721.2914
4792.9947
11010.004
29719.029
72892.398
118121.47
157839.09
187907.69
202544.37
197780.5
205479.6
326724.32
649153.37
1073448.7
1545864
2014369.8
2530318.7
3225854.7
4319502.6
6152590.6
9276736.9
14653635
24100227
41328557
74626744
1.4474964e+08
3.1258303e+08
8.029698e+08
2.8033066e+09
1.8782242e+10
2715.6941
4781.6441
10969.061
29575.269
72644.258
117887.13
157638.21
187747.68
202419.49
197662.51
205357.41
326631.54
649121.05
1073366.7
1545345.2
2013346.4
2529002.1
3224554
4318526.5
6152199.9
9277162.7
14655164
24103354
41334247
74636995
1.4476888e+08
3.1262211e+08
8.0305988e+08
2.8035564e+09
1.8785035e+10
2710.1199
4770.3179
10928.204
29431.814
72395.922
117652.44
157436.89
187587.75
202294.52
197544.43
205235.38
326539.47
649088.8
1073283.2
1544824.4
2012321.9
2527685.4
3223253.6
4317550.2
6151807.2
9277583.9
14656685
24106465
41339914
74647208
1.4478804e+08
3.1266107e+08
8.0314975e+08
2.803806e+09
1.8787818e+10
2704.5676
4759.0155
10887.436
29288.668
72147.394
117417.41
157235.12
187427.9
202169.44
197426.25
205113.5
326448.17
649056.65
1073198.1
1544301.8
2011296.8
2526369.6
3221955.3
4316576.6
6151417.3
9278007.5
14658207
24109577
41345578
74657415
1.448072e+08
3.1270001e+08
8.0323962e+08
2.8040561e+09
1.8790596e+10
2699.0359
4747.736
10846.761
29145.837
71898.676
117182.04
157032.9
187268.14
202044.24
197307.96
204991.76
326357.67
649024.53
1073111.4
1543777.1
2010270.5
2525053.6
3220657.1
4315602.5
6151025.1
9278425.7
14659719
24112673
41351217
74667579
1.4482628e+08
3.1273882e+08
8.0332924e+08
2.8043057e+09
1.8793364e+10
2693.5235
4736.4783
10806.18
29003.327
71649.771
116946.33
156830.21
187108.47
201918.92
197189.54
204870.14
326268.03
648992.44
1073023
1543250.3
2009243.3
2523738.2
3219360.6
4314630.3
6150634.3
9278844.2
14661230
24115765
41356846
74677727
1.4484533e+08
3.1277758e+08
8.0341881e+08
2.8045557e+09
1.8796124e+10
2688.0289
4725.2415
10765.697
28861.143
71400.681
116710.31
156627.05
186948.89
201793.47
197070.99
204748.61
326179.32
648960.37
1072932.9
1542721.3
2008214.8
2522422.4
3218063.9
4313657.4
6150241
9279257.1
14662730
24118840
41362450
74687832
1.4486431e+08
3.1281621e+08
8.0350811e+08
2.8048053e+09
1.8798874e+10
2682.5507
4714.0246
10725.314
28719.289
71151.408
116473.97
156423.4
186789.42
201667.88
196952.31
204627.17
326091.64
648928.42
1072841.2
1542190.5
2007185.8
2521107.5
3216769.1
4312686.8
6149849.9
9279671.9
14664232
24121915
41368050
74697930
1.4488328e+08
3.1285481e+08
8.035974e+08
2.8050552e+09
1.8801618e+10
2677.0873
4702.8266
10685.034
28577.772
70901.955
116237.33
156219.26
186630.03
201542.15
196833.51
204505.8
326005.09
648896.58
1072747.9
1541657.8
2006155.6
2519792.4
3215474.6
4311715.7
6149456.5
9280081.4
14665724
24124974
41373625
74707984
1.4490217e+08
3.1289327e+08
8.0368643e+08
2.8053048e+09
1.8804351e+10
2671.6372
4691.6461
10644.86
28436.597
70652.325
116000.39
156014.61
186470.8
201416.27
196714.56
204384.45
325919.76
648864.89
1072653.1
1541123.2
2005124.8
2518478
3214181.6
4310746.4
6149064.4
9280490.8
14667215
24128028
41379190
74718022
1.4492103e+08
3.1293169e+08
8.0377541e+08
2.8055546e+09
1.8807077e+10
2666.1986
4680.482
10604.793
28295.768
70402.518
115763.18
155809.45
186311.4
201290.24
196595.48
204263.11
325835.78
648833.33
1072556.7
1540586.5
2004092.8
2517163.4
3212888.8
4309776.6
6148670.2
9280895.3
14668696
24131067
41384730
74728019
1.4493982e+08
3.1296998e+08
8.0386413e+08
2.805804e+09
1.8809791e+10
2660.77
4669.3329
10564.836
28155.292
70152.536
115525.69
155603.76
186151.81
201164.06
196476.25
204141.74
325753.29
648801.98
1072458.8
1540048.2
2003060.3
2515849.5
3211597.8
4308809.3
6148278.3
9281301.6
14670178
24134105
41390266
74738006
1.4495859e+08
3.1300823e+08
8.0395282e+08
2.8060537e+09
1.8812501e+10
2655.3495
4658.1972
10524.991
28015.173
69902.382
115287.94
155397.54
185992.04
201037.71
196356.87
204020.29
325672.39
648770.71
1072359.2
1539507.8
2002026.5
2514535.4
3210306.9
4307841.3
6147883.9
9281702.5
14671650
24137126
41395776
74747950
1.4497728e+08
3.1304634e+08
8.0404122e+08
2.8063028e+09
1.8815199e+10
2649.9354
4647.0733
10485.262
27875.416
69652.057
115049.96
155190.78
185832.07
200911.19
196237.3
203898.71
325593.25
648739.47
1072258
1538965.4
2000991.9
2513221.7
3209017.2
4306874.8
6147490.5
9282102.9
14673119
24140142
41401275
74757873
1.4499594e+08
3.1308439e+08
8.0412953e+08
2.8065522e+09
1.8817889e+10
2644.5258
4635.9596
10445.65
27736.026
69401.559
114811.74
154983.47
185671.88
200784.51
196117.55
203776.95
325516.04
648708.17
1072155
1538420.9
1999955.9
2511907.5
3207727.4
4305907.5
6147094.5
9282497.8
14674579
24143141
41406747
74767752
1.4501452e+08
3.131223e+08
8.0421757e+08
2.806801e+09
1.8820568e+10
2639.1188
4624.8542
10406.157
27597.01
69150.892
114573.32
154775.59
185511.48
200657.64
195997.61
203654.94
325440.99
648676.86
1072050.4
1537874.5
1998919.3
2510594
3206439
4304942
6146700
9282893.4
14676038
24146138
41412213
74777618
1.4503307e+08
3.1316016e+08
8.0430553e+08
2.80705e+09
1.882324e+10
2633.7125
4613.7551
10366.784
27458.369
68900.052
114334.7
154567.14
185350.85
200530.58
195877.48
203532.62
325368.33
648645.41
1071944.1
1537326.2
1997881.6
2509280.4
3205150.8
4303975.8
6146302.8
9283283.4
14677487
24149118
41417652
74787440
1.4505155e+08
3.1319787e+08
8.0439322e+08
2.8072985e+09
1.8825902e+10
2628.305
4602.6605
10327.533
27320.11
68649.038
114095.9
154358.11
185189.97
200403.33
195757.16
203409.92
325298.24
648613.82
1071836.2
1536776.1
1996843.2
2507967.3
3203864
4303011.2
6145906.6
9283672.9
14678933
24152093
41423080
74797241
1.4507e+08
3.1323553e+08
8.0448082e+08
2.8075472e+09
1.8828556e+10
2622.8943
4591.5681
10288.403
27182.236
68397.85
113856.91
154148.51
185028.82
200275.89
195636.73
203287.23
325228.67
648582
1071726.7
1536224
1995803.6
2506653.9
3202577.1
4302045.9
6145508.1
9284057.3
14680371
24155052
41428483
74807001
1.4508837e+08
3.1327305e+08
8.0456815e+08
2.8077954e+09
1.8831198e+10
2617.4785
4580.4757
10249.398
27044.752
68146.489
113617.64
153938.49
184867.41
200148.25
195516.19
203164.63
325159.3
648550.01
1071615.7
1535670.3
1994763.5
2505341.2
3201291.9
4301082.6
6145111.4
9284442.8
14681808
24158009
41433879
74816748
1.4510671e+08
3.1331052e+08
8.046554e+08
2.8080437e+09
1.8833836e+10
2612.0555
4569.381
10210.515
26907.662
67894.956
113378.09
153728.06
184705.73
200020.4
195395.53
203042.12
325090.19
648517.75
1071503
1535114.6
1993722.2
2504028.1
3200006.5
4300118.5
6144711.9
9284822.5
14683234
24160948
41439248
74826447
1.4512497e+08
3.1334783e+08
8.0474233e+08
2.8082913e+09
1.883646e+10
2606.6233
4558.2814
10171.757
26770.971
67643.254
113138.26
153517.21
184543.77
199892.33
195274.75
202919.71
325021.52
648485.23
1071388.8
1534557.1
1992680.1
2502715.4
3198722.3
4299155.7
6144313.2
9285201.4
14684658
24163881
41444604
74836123
1.4514319e+08
3.1338506e+08
8.0482913e+08
2.808539e+09
1.8839077e+10
2601.1798
4547.1744
10133.123
26634.683
67391.384
112898.15
153305.93
184381.52
199764.04
195153.84
202797.39
324953.68
648452.36
1071272.7
1533997.5
1991636.7
2501402
3197437.7
4298191.6
6143911.3
9285574.1
14686071
24166795
41449930
74845749
1.4516132e+08
3.1342213e+08
8.0491559e+08
2.808786e+09
1.8841681e+10
2595.7231
4536.0575
10094.614
26498.8
67139.348
112657.77
153094.21
184218.98
199635.52
195032.78
202675.19
324886.54
648419.22
1071155
1533436.1
1990592.5
2500089.2
3196154.3
4297229.2
6143510.7
9285947.3
14687482
24169707
41455249
74855361
1.4517942e+08
3.1345914e+08
8.0500194e+08
2.8090329e+09
1.8844279e+10
2590.2511
4524.9277
10056.228
26363.327
66887.146
112417.11
152882.06
184056.13
199506.76
194911.58
202553.1
324820.02
648385.73
1071035.6
1532872.7
1989547.3
2498776.1
3194870.8
4296265.6
6143107
9286314
14688883
24172600
41460537
74864922
1.4519743e+08
3.1349598e+08
8.0508795e+08
2.8092791e+09
1.8846864e+10
2584.7617
4513.7824
10017.965
26228.268
66634.779
112176.18
152669.47
183892.96
199377.75
194790.23
202431.13
324754.32
648351.94
1070914.6
1532307.6
1988501.4
2497463.5
3193588.6
4295303.4
6142703.9
9286679.9
14690280
24175486
41465813
74874460
1.452154e+08
3.1353275e+08
8.0517382e+08
2.8095254e+09
1.8849441e+10
2579.2531
4502.6187
9979.824
26093.624
66382.246
111934.98
152456.42
183729.48
199248.48
194668.73
202309.28
324689.21
648317.82
1070791.8
1531740.5
1987454.3
2496150.6
3192306.1
4294339.9
6142297.5
9287039.3
14691666
24178353
41471059
74883948
1.4523328e+08
3.1356934e+08
8.0525934e+08
2.8097708e+09
1.8852005e+10
2573.7231
4491.4338
9941.8028
25959.398
66129.546
111693.52
152242.92
183565.66
199118.95
194547.06
202187.56
324624.78
648283.44
1070667.5
1531171.8
1986406.7
2494838.3
3191025
4293378.4
6141892.9
9287399.8
14693052
24181219
41476298
74893421
1.4525114e+08
3.1360588e+08
8.0534474e+08
2.8100161e+09
1.8854563e+10
2568.1698
4480.2246
9903.9
25825.595
65876.68
111451.78
152028.95
183401.5
198989.14
194425.23
202065.96
324561.03
648248.72
1070541.4
1530601.2
1985358
2493525.7
3189743.8
4292415.7
6141484.9
9287753.4
14694426
24184064
41481505
74902840
1.4526889e+08
3.1364223e+08
8.0542974e+08
2.8102605e+09
1.8857106e+10
2562.5913
4468.9898
9866.1139
25692.215
65623.646
111209.78
151814.52
183237
198859.04
194303.23
201944.48
324497.9
648213.64
1070413.7
1530028.7
1984308.5
2492213.5
3188463.7
4291454.3
6141077.4
9288105.9
14695796
24186902
41486697
74912233
1.452866e+08
3.1367848e+08
8.0551455e+08
2.8105046e+09
1.8859641e+10
2556.9859
4457.7355
9828.4417
25559.262
65370.443
110967.52
151599.61
183072.13
198728.65
194181.03
201823.14
324435.4
648178.13
1070284.1
1529454.1
1983257.7
2490900.6
3187183.1
4290491.3
6140666.2
9288451.2
14697154
24189719
41491856
74921569
1.4530421e+08
3.1371455e+08
8.0559895e+08
2.8107477e+09
1.8862161e+10
2551.3516
4446.4588
9790.8811
25426.737
65117.069
110725
151384.23
182906.89
198597.95
194058.65
201701.92
324373.53
648142.26
1070152.8
1528877.8
1982206.2
2489588.3
3185903.8
4289530.1
6140256.7
9288797.4
14698511
24192534
41497008
74930889
1.4532178e+08
3.1375054e+08
8.0568321e+08
2.8109907e+09
1.8864674e+10
2545.6865
4435.1562
9753.43
25294.643
64863.521
110482.22
151168.35
182741.28
198466.94
193936.06
201580.82
324312.25
648105.94
1070019.7
1528299.4
1981153.5
2488275.5
3184624.1
4288567.3
6139843.2
9289136
14699856
24195327
41502125
74940151
1.4533925e+08
3.1378634e+08
8.0576703e+08
2.8112325e+09
1.8867172e+10
2539.9889
4423.8244
9716.086
25162.982
64609.797
110239.18
150951.98
182575.27
198335.6
193813.26
201459.84
324251.58
648069.17
1069884.8
1527719.2
1980100.1
2486963
3183345.4
4287605.5
6139429.9
9289473.2
14701196
24198112
41507226
74949385
1.4535667e+08
3.1382203e+08
8.0585064e+08
2.8114741e+09
1.8869661e+10
2534.2568
4412.4602
9678.8464
25031.754
64355.893
109995.88
150735.11
182408.86
198203.92
193690.24
201338.99
324191.48
648031.91
1069748
1527136.9
1979045.4
2485650.1
3182066.2
4286642.1
6139012.6
9289802.7
14702523
24200875
41512293
74958561
1.4537398e+08
3.1385752e+08
8.0593383e+08
2.8117145e+09
1.8872136e+10
2528.4886
4401.0601
9641.7082
24900.963
64101.805
109752.32
150517.73
182242.03
198071.9
193567.01
201218.25
324131.97
647994.25
1069609.6
1526553.1
1977990.3
2484337.9
3180788.6
4285680.6
6138597.1
9290133.3
14703850
24203636
41517352
74967719
1.4539126e+08
3.1389294e+08
8.0601686e+08
2.8119547e+09
1.8874603e+10
2522.6825
4389.6208
9604.668
24770.609
63847.527
109508.52
150299.83
182074.78
197939.52
193443.53
201097.63
324073.02
647956.06
1069469.3
1525967.2
1976934.1
2483025.5
3179510.7
4284717.7
6138177.8
9290456.2
14705163
24206374
41522375
74976817
1.4540843e+08
3.1392814e+08
8.0609942e+08
2.8121937e+09
1.8877055e+10
2516.8369
4378.1389
9567.7226
24640.692
63593.056
109264.45
150081.41
181907.09
197806.76
193319.82
200977.11
324014.62
647917.36
1069327.1
1525379.4
1975877.1
2481713.3
3178233.8
4283755.8
6137758.6
9290777.5
14706472
24209104
41527381
74985882
1.4542553e+08
3.1396323e+08
8.0618173e+08
2.8124322e+09
1.8879497e+10
2510.9503
4366.611
9530.8685
24511.216
63338.386
109020.14
149862.46
181738.95
197673.63
193195.86
200856.7
323956.75
647878.05
1069182.8
1524789.5
1974818.7
2480400.5
3176956.1
4282792.1
6137335.1
9291090.6
14707767
24211811
41532350
74994886
1.4544253e+08
3.139981e+08
8.0626355e+08
2.8126695e+09
1.8881923e+10
2505.021
4355.0337
9494.1027
24382.18
63083.512
108775.57
149642.98
181570.35
197540.1
193071.64
200736.39
323899.4
647838.21
1069036.7
1524197.7
1973759.7
2479088.3
3175680
4281830.1
6136913.1
9291404.1
14709061
24214513
41537308
75003867
1.4545948e+08
3.1403287e+08
8.0634518e+08
2.8129064e+09
1.8884342e+10
2499.0478
4343.4035
9457.4216
24253.587
62828.427
108530.75
149422.95
181401.27
197406.18
192947.15
200616.18
323842.57
647797.75
1068888.6
1523603.8
1972699.5
2477775.7
3174403.4
4280866.4
6136486.9
9291709.7
14710341
24217192
41542229
75012785
1.4547632e+08
3.1406742e+08
8.064263e+08
2.8131419e+09
1.8886744e+10
2493.029
4331.7171
9420.8216
24125.438
62573.126
108285.68
149202.36
181231.72
197271.84
192822.38
200496.05
323786.23
647756.68
1068738.6
1523008
1971638.4
2476463.4
3173127.7
4279903.7
6136060.7
9292013.2
14711615
24219862
41547131
75021668
1.4549309e+08
3.1410184e+08
8.0650714e+08
2.8133768e+09
1.8889136e+10
2486.9635
4319.9709
9384.2994
23997.735
62317.601
108040.36
148981.22
181061.66
197137.08
192697.33
200376.01
323730.38
647714.94
1068586.4
1522409.9
1970576
2475150.3
3171851.3
4278939
6135630.1
9292308.4
14712876
24222508
41551995
75030487
1.4550975e+08
3.1413603e+08
8.0658747e+08
2.8136104e+09
1.8891512e+10
2480.85
4308.1618
9347.8512
23870.479
62061.844
107794.79
148759.51
180891.1
197001.89
192571.99
200256.04
323675.01
647672.59
1068432.5
1521810.2
1969513
2473837.9
3170576.2
4277975.8
6135200.4
9292603.5
14714134
24225148
41556847
75039281
1.4552636e+08
3.1417011e+08
8.0666756e+08
2.8138434e+09
1.8893879e+10
2474.6873
4296.2864
9311.4735
23743.672
61805.849
107548.97
148537.22
180720.02
196866.26
192446.35
200136.14
323620.08
647629.53
1068276.4
1521208.3
1968449
2472525.2
3169300.8
4277011
6134766.6
9292890.4
14715378
24227765
41561660
75048009
1.4554284e+08
3.1420396e+08
8.0674713e+08
2.8140751e+09
1.889623e+10
2468.4743
4284.3414
9275.1623
23617.315
61549.605
107302.9
148314.35
180548.4
196730.17
192320.41
200016.31
323565.6
647585.75
1068118.3
1520604.6
1967384.1
2471212.9
3168026.4
4276047.1
6134332.6
9293175
14716617
24230370
41566452
75056699
1.4555926e+08
3.1423767e+08
8.0682639e+08
2.814306e+09
1.8898569e+10
2462.2102
4272.3237
9238.9135
23491.411
61293.105
107056.58
148090.89
180376.24
196593.63
192194.16
199896.53
323511.55
647541.18
1067958
1519998.5
1966318
2469900
3166751.5
4275081.5
6133894.5
9293451.5
14717841
24232953
41571207
75065325
1.4557556e+08
3.1427114e+08
8.0690511e+08
2.8145354e+09
1.8900893e+10
2455.8939
4260.23
9202.7232
23365.96
61036.34
106810.01
147866.83