/*--------------------------------*- C++ -*----------------------------------*\
| =========                 |                                                 |
| \\      /  F ield         | OpenFOAM: The Open Source CFD Toolbox           |
|  \\    /   O peration     | Version:  v2012                                 |
|   \\  /    A nd           | Website:  www.openfoam.com                      |
|    \\/     M anipulation  |                                                 |
\*---------------------------------------------------------------------------*/
FoamFile
{
    version     2.0;
    format      ascii;
    class       surfaceScalarField;
    location    "550";
    object      phi;
}
// * * * * * * * * * * * * * * * * * * * * * * * * * * * * * * * * * * * * * //

dimensions      [1 0 -1 0 0 0 0];
oriented        oriented;


internalField   nonuniform List<scalar> 
47170
(
-1.0399622e-08
-4.2739058e-05
-1.6794098e-08
-3.5354824e-05
-1.8163776e-08
-2.8208834e-05
-1.5685521e-08
-2.0904373e-05
-1.0262218e-08
-1.4055607e-05
-5.330475e-09
-9.1803527e-06
-2.5241113e-09
-6.0735136e-06
-1.0192489e-09
-4.1127787e-06
-2.9362724e-10
-2.8468896e-06
1.2834013e-10
-2.0086261e-06
3.1282717e-10
-1.4251162e-06
2.9801406e-10
-9.8924109e-07
2.5016519e-10
-6.7138155e-07
1.9732017e-10
-4.5636765e-07
1.4235742e-10
-3.0962909e-07
9.4602518e-11
-2.0913811e-07
5.6124434e-11
-1.4091962e-07
2.80705e-11
-9.4690472e-08
9.1947566e-12
-6.3401297e-08
-1.6081182e-12
-4.2286055e-08
-6.8606993e-12
-2.8069258e-08
-8.2036737e-12
-1.8507116e-08
-7.5141012e-12
-1.2084081e-08
-5.8002662e-12
-7.7806044e-09
-3.9673221e-12
-4.9096388e-09
-2.3715337e-12
-3.0067441e-09
-1.1969201e-12
-1.7571434e-09
-4.6165135e-13
-9.4716176e-10
-9.6036435e-14
-4.3170148e-10
-1.1230678e-10
-1.1723535e-08
-4.2727334e-05
-2.0382149e-08
-3.5346166e-05
-2.3349763e-08
-2.8205867e-05
-1.7247426e-08
-2.0910476e-05
-7.113955e-09
-1.4065741e-05
-7.707795e-10
-9.1866959e-06
1.8074135e-09
-6.0760918e-06
2.7136433e-09
-4.1136849e-06
2.694247e-09
-2.8468703e-06
2.2177321e-09
-2.0081495e-06
1.6246179e-09
-1.4245232e-06
1.1332039e-09
-9.8874961e-07
7.8211616e-10
-6.7103062e-07
5.2195198e-10
-4.5610742e-07
3.316155e-10
-3.0943891e-07
2.0310344e-10
-2.0900953e-07
1.1948925e-10
-1.4083614e-07
6.7054918e-11
-9.4637986e-08
3.5186343e-11
-6.3369525e-08
1.6877421e-11
-4.2267713e-08
6.8056699e-12
-2.8059247e-08
1.8140933e-12
-1.8502108e-08
-3.5861426e-13
-1.2081942e-08
-9.8047506e-13
-7.779981e-09
-9.2951147e-13
-4.9097115e-09
-6.200221e-13
-3.007051e-09
-3.3872644e-13
-1.757453e-09
-1.3589536e-13
-9.4738214e-10
-3.2351449e-14
-4.3181748e-10
-1.1233913e-10
-1.2313426e-08
-4.2715021e-05
-2.1470012e-08
-3.5337009e-05
-2.4260889e-08
-2.8203076e-05
-1.7022599e-08
-2.0917714e-05
-6.1153551e-09
-1.4076648e-05
3.5391355e-10
-9.1931651e-06
2.9456395e-09
-6.0786836e-06
3.7086648e-09
-4.1144478e-06
3.4829302e-09
-2.8466446e-06
2.8148366e-09
-2.0074814e-06
2.0542189e-09
-1.4237627e-06
1.4230952e-09
-9.8811843e-07
9.6756945e-10
-6.7057519e-07
6.3947395e-10
-4.5577926e-07
4.0815115e-10
-3.0920768e-07
2.558614e-10
-2.088572e-07
1.588642e-10
-1.4073925e-07
9.852548e-11
-9.4577626e-08
6.138755e-11
-6.3332475e-08
3.8718906e-11
-4.2245041e-08
2.4586837e-11
-2.8045182e-08
1.5646176e-11
-1.8493176e-08
9.8003845e-12
-1.2076143e-08
5.9768439e-12
-7.776169e-09
3.4555426e-12
-4.9072179e-09
1.849965e-12
-3.0054597e-09
8.7029906e-13
-1.7564868e-09
3.2183915e-13
-9.468456e-10
6.4800533e-14
-4.315689e-10
-1.1227433e-10
-1.2747634e-08
-4.2702273e-05
-2.2196474e-08
-3.532756e-05
-2.4824203e-08
-2.8200448e-05
-1.692053e-08
-2.0925618e-05
-5.5159696e-09
-1.4088053e-05
1.1305697e-09
-9.1998116e-06
3.8385092e-09
-6.0813915e-06
4.4881307e-09
-4.1150974e-06
4.1144723e-09
-2.846271e-06
3.3221017e-09
-2.0066889e-06
2.4567777e-09
-1.4228974e-06
1.7218009e-09
-9.8738339e-07
1.1807976e-09
-6.7003425e-07
7.8991806e-10
-4.5538833e-07
5.1264342e-10
-3.0893048e-07
3.2660721e-10
-2.0867113e-07
2.0486033e-10
-1.4061758e-07
1.2656026e-10
-9.449931e-08
7.6914249e-11
-6.3282901e-08
4.6070238e-11
-4.22142e-08
2.710532e-11
-2.8026271e-08
1.5658943e-11
-1.8481744e-08
8.819306e-12
-1.206934e-08
4.8243743e-12
-7.7721937e-09
2.5252971e-12
-4.9049441e-09
1.2493811e-12
-3.0041944e-09
5.4858937e-13
-1.7558097e-09
1.9397258e-13
-9.4650701e-10
3.6596677e-14
-4.3142291e-10
-1.1223773e-10
-1.2999092e-08
-4.2689274e-05
-2.2540888e-08
-3.5318018e-05
-2.5002043e-08
-2.8197987e-05
-1.6793502e-08
-2.0933826e-05
-5.1847078e-09
-1.4099661e-05
1.5991611e-09
-9.2065955e-06
4.3585219e-09
-6.0841509e-06
4.9408277e-09
-4.1156797e-06
4.488291e-09
-2.8458185e-06
3.6309697e-09
-2.0058316e-06
2.7090012e-09
-1.4219755e-06
1.9154646e-09
-9.8658982e-07
1.324418e-09
-6.6944326e-07
8.9666639e-10
-4.5496054e-07
5.9236815e-10
-3.0862626e-07
3.8633919e-10
-2.0846508e-07
2.4977649e-10
-1.404811e-07
1.6034311e-10
-9.4409868e-08
1.0219166e-10
-6.3224826e-08
6.4747838e-11
-4.2176753e-08
4.05982e-11
-2.800218e-08
2.5123172e-11
-1.846627e-08
1.5184477e-11
-1.2059441e-08
8.9041322e-12
-7.7659169e-09
4.9653174e-12
-4.9010268e-09
2.5779871e-12
-3.0018137e-09
1.1835125e-12
-1.7544253e-09
4.3189278e-13
-9.4576298e-10
8.7973933e-14
-4.3108437e-10
-1.1214976e-10
-1.3141908e-08
-4.2676132e-05
-2.2706161e-08
-3.5308454e-05
-2.5055841e-08
-2.8195637e-05
-1.6705769e-08
-2.0942176e-05
-4.9879721e-09
-1.4111379e-05
1.9082045e-09
-9.2134916e-06
4.688734e-09
-6.0869315e-06
5.2308511e-09
-4.1162218e-06
4.7310021e-09
-2.8453187e-06
3.8341093e-09
-2.0049347e-06
2.8762532e-09
-1.4210177e-06
2.044107e-09
-9.8575763e-07
1.4189842e-09
-6.6881819e-07
9.6521911e-10
-4.5450675e-07
6.4119442e-10
-3.083023e-07
4.2026353e-10
-2.0824412e-07
2.7269276e-10
-1.403336e-07
1.753205e-10
-9.4312483e-08
1.1165463e-10
-6.3161218e-08
7.0506095e-11
-4.2135599e-08
4.3986664e-11
-2.7975703e-08
2.7032972e-11
-1.8449319e-08
1.6228067e-11
-1.2048663e-08
9.4405643e-12
-7.7591384e-09
5.2317656e-12
-4.8968346e-09
2.7017101e-12
-2.9992894e-09
1.2332325e-12
-1.7529698e-09
4.4838852e-13
-9.4498638e-10
9.1037295e-14
-4.3073287e-10
-1.1205872e-10
-1.3215639e-08
-4.2662916e-05
-2.2772059e-08
-3.5298898e-05
-2.5054325e-08
-2.8193355e-05
-1.6647637e-08
-2.0950583e-05
-4.8710748e-09
-1.4123156e-05
2.1079514e-09
-9.2204706e-06
4.8994694e-09
-6.089723e-06
5.417639e-09
-4.1167399e-06
4.8890085e-09
-2.8447901e-06
3.9673611e-09
-2.004013e-06
2.9867126e-09
-1.4200371e-06
2.1297641e-09
-9.8490065e-07
1.4826609e-09
-6.6817113e-07
1.0121323e-09
-4.5403619e-07
6.7545925e-10
-3.0796567e-07
4.4500608e-10
-2.0801365e-07
2.9039472e-10
-1.4017904e-07
1.8785257e-10
-9.4209932e-08
1.2043891e-10
-6.3093853e-08
7.6562287e-11
-4.2091724e-08
4.8091088e-11
-2.7947269e-08
2.9742071e-11
-1.8430975e-08
1.7960476e-11
-1.2036907e-08
1.050309e-11
-7.7516872e-09
5.8458822e-12
-4.8921927e-09
3.0264397e-12
-2.9964759e-09
1.3862212e-12
-1.7513384e-09
5.0499911e-13
-9.44112e-10
1.0307781e-13
-4.3033581e-10
-1.1195564e-10
-1.3249589e-08
-4.2649667e-05
-2.278937e-08
-3.5289358e-05
-2.503665e-08
-2.8191108e-05
-1.6617791e-08
-2.0959002e-05
-4.805672e-09
-1.4134968e-05
2.2358721e-09
-9.2275122e-06
5.0358367e-09
-6.092523e-06
5.5401959e-09
-4.1172443e-06
4.9935235e-09
-2.8442434e-06
4.0557348e-09
-2.0030752e-06
3.0599916e-09
-1.4190414e-06
2.1865724e-09
-9.840272e-07
1.5248031e-09
-6.6750939e-07
1.0430247e-09
-4.5355437e-07
6.9781442e-10
-3.0762051e-07
4.6090719e-10
-2.0777672e-07
3.0151162e-10
-1.4001969e-07
1.9548325e-10
-9.4103894e-08
1.2558951e-10
-6.3023998e-08
7.9966752e-11
-4.2046102e-08
5.0304466e-11
-2.7917634e-08
3.1138703e-11
-1.8411818e-08
1.8824751e-11
-1.202461e-08
1.1010086e-11
-7.7438835e-09
6.1329163e-12
-4.8873263e-09
3.1747373e-12
-2.9935241e-09
1.4537773e-12
-1.7496259e-09
5.2961718e-13
-9.4319377e-10
1.083071e-13
-4.2991871e-10
-1.1184734e-10
-1.3261835e-08
-4.2636405e-05
-2.2784969e-08
-3.5279835e-05
-2.5019108e-08
-2.8188873e-05
-1.6611068e-08
-2.096741e-05
-4.7756399e-09
-1.4146803e-05
2.3153588e-09
-9.2346032e-06
5.1243925e-09
-6.095332e-06
5.6214093e-09
-4.1177413e-06
5.0633272e-09
-2.8436854e-06
4.1149769e-09
-2.0021268e-06
3.1092045e-09
-1.4180356e-06
2.2248107e-09
-9.8314278e-07
1.5532832e-09
-6.668379e-07
1.0640132e-09
-4.5306508e-07
7.1312484e-10
-3.0726966e-07
4.7189714e-10
-2.0753547e-07
3.0928191e-10
-1.3985713e-07
2.0090464e-10
-9.3995502e-08
1.2929854e-10
-6.2952441e-08
8.2477096e-11
-4.1999271e-08
5.1952843e-11
-2.788715e-08
3.221412e-11
-1.8392073e-08
1.9488883e-11
-1.2011913e-08
1.1418476e-11
-7.735812e-09
6.3620804e-12
-4.8822858e-09
3.2973345e-12
-2.9904628e-09
1.510849e-12
-1.7478481e-09
5.5063827e-13
-9.4223979e-10
1.1263018e-13
-4.2948512e-10
-1.1173471e-10
-1.3263442e-08
-4.2623141e-05
-2.2773328e-08
-3.5270325e-05
-2.5008196e-08
-2.8186639e-05
-1.6623982e-08
-2.0975794e-05
-4.7708489e-09
-1.4158656e-05
2.3617064e-09
-9.2417357e-06
5.1812774e-09
-6.0981516e-06
5.6754617e-09
-4.1182354e-06
5.1102453e-09
-2.8431202e-06
4.1549766e-09
-2.0011715e-06
3.1424706e-09
-1.4170231e-06
2.2506625e-09
-9.8225094e-07
1.5725504e-09
-6.6615982e-07
1.0782202e-09
-4.5257073e-07
7.2350375e-10
-3.0691499e-07
4.7936058e-10
-2.072913e-07
3.1455995e-10
-1.3969237e-07
2.0456694e-10
-9.3885491e-08
1.3180128e-10
-6.2879715e-08
8.415584e-11
-4.1951614e-08
5.3062006e-11
-2.7856085e-08
3.291891e-11
-1.8371927e-08
1.9931489e-11
-1.1998944e-08
1.1676578e-11
-7.727561e-09
6.5091862e-12
-4.8771293e-09
3.3719949e-12
-2.9873291e-09
1.5443074e-12
-1.7460274e-09
5.6276784e-13
-9.4126236e-10
1.154652e-13
-4.2904074e-10
-1.1161924e-10
-1.3260688e-08
-4.2609881e-05
-2.2761849e-08
-3.5260824e-05
-2.500611e-08
-2.8184394e-05
-1.6652837e-08
-2.0984147e-05
-4.7845871e-09
-1.4170525e-05
2.3847722e-09
-9.248905e-06
5.2165659e-09
-6.1009834e-06
5.7111924e-09
-4.11873e-06
5.1419263e-09
-2.8425509e-06
4.1821872e-09
-2.0002117e-06
3.1651571e-09
-1.4160061e-06
2.2683102e-09
-9.8135407e-07
1.5857439e-09
-6.6547728e-07
1.0879985e-09
-4.5207295e-07
7.3070673e-10
-3.0655773e-07
4.8458092e-10
-2.0704516e-07
3.1828794e-10
-1.3952611e-07
2.0717456e-10
-9.3774363e-08
1.3360073e-10
-6.2806175e-08
8.5367588e-11
-4.1903376e-08
5.3865455e-11
-2.782461e-08
3.343521e-11
-1.8351497e-08
2.0254886e-11
-1.1985783e-08
1.1872151e-11
-7.7191807e-09
6.6207726e-12
-4.8718889e-09
3.4314519e-12
-2.9841428e-09
1.5726434e-12
-1.7441753e-09
5.7325282e-13
-9.4026782e-10
1.1753435e-13
-4.2858846e-10
-1.1150171e-10
-1.3256977e-08
-4.2596624e-05
-2.2753707e-08
-3.5251327e-05
-2.5013584e-08
-2.8182134e-05
-1.6694366e-08
-2.0992466e-05
-4.8119566e-09
-1.4182407e-05
2.3912294e-09
-9.2561082e-06
5.2369042e-09
-6.1038291e-06
5.7341668e-09
-4.1192273e-06
5.1631259e-09
-2.8419799e-06
4.2006507e-09
-1.9992492e-06
3.1805907e-09
-1.4149861e-06
2.280327e-09
-9.8045377e-07
1.5947272e-09
-6.647917e-07
1.0946662e-09
-4.5157286e-07
7.3562779e-10
-3.0619872e-07
4.8816503e-10
-2.0679767e-07
3.2085374e-10
-1.3935883e-07
2.0896819e-10
-9.3662464e-08
1.3483816e-10
-6.2732072e-08
8.6200649e-11
-4.1854733e-08
5.4419667e-11
-2.7792848e-08
3.3786783e-11
-1.8330867e-08
2.0477178e-11
-1.1972485e-08
1.2000208e-11
-7.7107094e-09
6.6939422e-12
-4.8665895e-09
3.4666809e-12
-2.9809194e-09
1.5883338e-12
-1.7423012e-09
5.7887647e-13
-9.3926123e-10
1.1900157e-13
-4.2813062e-10
-1.1138271e-10
-1.3254074e-08
-4.258337e-05
-2.2749839e-08
-3.5241831e-05
-2.5029759e-08
-2.8179854e-05
-1.6746294e-08
-2.100075e-05
-4.849714e-09
-1.4194304e-05
2.3855397e-09
-9.2633434e-06
5.2465645e-09
-6.1066901e-06
5.7483432e-09
-4.119729e-06
5.1770234e-09
-2.8414086e-06
4.2130166e-09
-1.9982852e-06
3.190999e-09
-1.4139641e-06
2.2884459e-09
-9.795512e-07
1.6007973e-09
-6.6410408e-07
1.0991963e-09
-4.5107124e-07
7.390032e-10
-3.0583856e-07
4.906422e-10
-2.0654929e-07
3.2263798e-10
-1.3919087e-07
2.102316e-10
-9.3550043e-08
1.3570887e-10
-6.2657585e-08
8.6798208e-11
-4.1805813e-08
5.4810022e-11
-2.7760889e-08
3.4049665e-11
-1.83101e-08
2.063793e-11
-1.1959094e-08
1.2105275e-11
-7.7021758e-09
6.7530872e-12
-4.8612497e-09
3.5018024e-12
-2.9776707e-09
1.6053187e-12
-1.7404121e-09
5.8530378e-13
-9.3824641e-10
1.1998902e-13
-4.27669e-10
-1.1126272e-10
-1.3252841e-08
-4.2570117e-05
-2.2750533e-08
-3.5232333e-05
-2.5053434e-08
-2.8177552e-05
-1.6806236e-08
-2.1008997e-05
-4.8953909e-09
-1.4206214e-05
2.370847e-09
-9.2706097e-06
5.2485474e-09
-6.1095678e-06
5.7562109e-09
-4.1202367e-06
5.1856186e-09
-2.840838e-06
4.2209564e-09
-1.9973205e-06
3.1977394e-09
-1.4129409e-06
2.2937045e-09
-9.7864714e-07
1.6047038e-09
-6.634151e-07
1.1021153e-09
-4.5056863e-07
7.4119105e-10
-3.0547766e-07
4.9226361e-10
-2.0630034e-07
3.2381581e-10
-1.3902245e-07
2.1105965e-10
-9.3437271e-08
1.3628471e-10
-6.2582837e-08
8.7185693e-11
-4.1756703e-08
5.5070304e-11
-2.7728794e-08
3.4211376e-11
-1.8289239e-08
2.0740839e-11
-1.1945637e-08
1.216014e-11
-7.6935978e-09
6.7839002e-12
-4.855881e-09
3.5142769e-12
-2.9744038e-09
1.6100592e-12
-1.7385121e-09
5.8683342e-13
-9.3722566e-10
1.2070923e-13
-4.2720463e-10
-1.1114201e-10
-1.3253573e-08
-4.2556863e-05
-2.2755705e-08
-3.5222831e-05
-2.5083223e-08
-2.8175224e-05
-1.687264e-08
-2.1017208e-05
-4.9469865e-09
-1.421814e-05
2.3494809e-09
-9.2779061e-06
5.2449838e-09
-6.1124633e-06
5.7594706e-09
-4.1207511e-06
5.1904363e-09
-2.840269e-06
4.2257579e-09
-1.9963558e-06
3.2018972e-09
-1.411917e-06
2.2969568e-09
-9.7774218e-07
1.6071494e-09
-6.6272531e-07
1.1039759e-09
-4.5006543e-07
7.4263693e-10
-3.0511634e-07
4.9336628e-10
-2.0605105e-07
3.2464361e-10
-1.3885375e-07
2.116625e-10
-9.3324277e-08
1.3671719e-10
-6.2507916e-08
8.7480583e-11
-4.1707463e-08
5.5272398e-11
-2.7696605e-08
3.434316e-11
-1.8268309e-08
2.0824987e-11
-1.1932132e-08
1.2212734e-11
-7.6849871e-09
6.8147344e-12
-4.850491e-09
3.5324408e-12
-2.9711232e-09
1.6190841e-12
-1.736604e-09
5.9024482e-13
-9.3620044e-10
1.2125071e-13
-4.267382e-10
-1.1102076e-10
-1.3256306e-08
-4.2543607e-05
-2.2764907e-08
-3.5213323e-05
-2.5117618e-08
-2.8172871e-05
-1.6944099e-08
-2.1025381e-05
-5.0034398e-09
-1.4230081e-05
2.3229632e-09
-9.2852325e-06
5.2370917e-09
-6.1153774e-06
5.7593623e-09
-4.1212734e-06
5.192603e-09
-2.8397022e-06
4.2283004e-09
-1.9953915e-06
3.2041759e-09
-1.4108929e-06
2.2987305e-09
-9.7683671e-07
1.6084868e-09
-6.6203508e-07
1.1049928e-09
-4.4956191e-07
7.4345537e-10
-3.0475482e-07
4.9401089e-10
-2.0580159e-07
3.2513253e-10
-1.3868489e-07
2.1202639e-10
-9.321116e-08
1.3697968e-10
-6.2432888e-08
8.7659818e-11
-4.1658139e-08
5.5397205e-11
-2.7664355e-08
3.44197e-11
-1.8247334e-08
2.0874988e-11
-1.1918596e-08
1.2238099e-11
-7.6763547e-09
6.8292355e-12
-4.8450864e-09
3.5363378e-12
-2.9678334e-09
1.6204464e-12
-1.7346903e-09
5.9058825e-13
-9.3517212e-10
1.216312e-13
-4.2627034e-10
-1.1089913e-10
-1.3260927e-08
-4.2530346e-05
-2.2777718e-08
-3.5203806e-05
-2.5156181e-08
-2.8170493e-05
-1.7019204e-08
-2.1033518e-05
-5.0633639e-09
-1.4242037e-05
2.2926199e-09
-9.2925885e-06
5.2261575e-09
-6.118311e-06
5.7566597e-09
-4.1218039e-06
5.1927647e-09
-2.8391383e-06
4.2291551e-09
-1.9944279e-06
3.2050745e-09
-1.4098688e-06
2.2994352e-09
-9.7593106e-07
1.609036e-09
-6.613447e-07
1.105439e-09
-4.490583e-07
7.4387573e-10
-3.0439328e-07
4.9436876e-10
-2.0555207e-07
3.2542305e-10
-1.3851598e-07
2.1226692e-10
-9.3097993e-08
1.3715942e-10
-6.2357809e-08
8.779672e-11
-4.160877e-08
5.5488674e-11
-2.7632072e-08
3.449262e-11
-1.8226333e-08
2.0920406e-11
-1.1905041e-08
1.2275806e-11
-7.6677101e-09
6.8519818e-12
-4.8396737e-09
3.5543496e-12
-2.9645384e-09
1.6299246e-12
-1.7327735e-09
5.9438478e-13
-9.3414212e-10
1.2182676e-13
-4.2580171e-10
-1.107773e-10
-1.3267208e-08
-4.2517079e-05
-2.2793574e-08
-3.5194279e-05
-2.519786e-08
-2.8168089e-05
-1.7097435e-08
-2.1041619e-05
-5.1261162e-09
-1.4254008e-05
2.2592698e-09
-9.2999739e-06
5.21286e-09
-6.1212646e-06
5.7521022e-09
-4.1223431e-06
5.1913272e-09
-2.8385776e-06
4.2286687e-09
-1.9934652e-06
3.2048618e-09
-1.408845e-06
2.2992637e-09
-9.7502544e-07
1.6089026e-09
-6.6065435e-07
1.105362e-09
-4.4855475e-07
7.4388501e-10
-3.0403183e-07
4.9441936e-10
-2.0530259e-07
3.2548541e-10
-1.3834707e-07
2.1232595e-10
-9.2984821e-08
1.3721037e-10
-6.2282715e-08
8.7831397e-11
-4.1559381e-08
5.5513602e-11
-2.759977e-08
3.4501391e-11
-1.8205319e-08
2.0925181e-11
-1.1891476e-08
1.2270928e-11
-7.6590581e-09
6.8470595e-12
-4.834256e-09
3.5462668e-12
-2.9612402e-09
1.624787e-12
-1.7308548e-09
5.9217253e-13
-9.3311103e-10
1.2196386e-13
-4.2533258e-10
-1.1065534e-10
-1.3274846e-08
-4.2503804e-05
-2.2811868e-08
-3.5184742e-05
-2.5241631e-08
-2.8165659e-05
-1.7178471e-08
-2.1049682e-05
-5.1912794e-09
-1.4265995e-05
2.2233494e-09
-9.3073885e-06
5.1976193e-09
-6.1242389e-06
5.7462028e-09
-4.1228917e-06
5.1886983e-09
-2.8380201e-06
4.2272024e-09
-1.9925037e-06
3.2038784e-09
-1.4078217e-06
2.298498e-09
-9.7412005e-07
1.6083294e-09
-6.599642e-07
1.1049772e-09
-4.4805138e-07
7.4368449e-10
-3.0367055e-07
4.9433355e-10
-2.0505322e-07
3.2547129e-10
-1.3817822e-07
2.1234359e-10
-9.2871683e-08
1.3724833e-10
-6.2207637e-08
8.7864367e-11
-4.1509994e-08
5.5542841e-11
-2.7567464e-08
3.4522548e-11
-1.8184298e-08
2.0941791e-11
-1.1877906e-08
1.2284078e-11
-7.650402e-09
6.8566158e-12
-4.8288352e-09
3.5550689e-12
-2.95794e-09
1.6296519e-12
-1.7289347e-09
5.9413551e-13
-9.320792e-10
1.220535e-13
-4.2486312e-10
-1.1053328e-10
-1.3283585e-08
-4.249052e-05
-2.2831903e-08
-3.5175194e-05
-2.5288047e-08
-2.8163203e-05
-1.7261119e-08
-2.1057709e-05
-5.2583352e-09
-1.4277998e-05
2.1854911e-09
-9.3148323e-06
5.1809595e-09
-6.1272343e-06
5.7390525e-09
-4.1234498e-06
5.1851622e-09
-2.8374662e-06
4.2250077e-09
-1.9915435e-06
3.2023013e-09
-1.406799e-06
2.2972607e-09
-9.7321499e-07
1.6073642e-09
-6.5927431e-07
1.1042878e-09
-4.4754828e-07
7.4323542e-10
-3.0330951e-07
4.9406367e-10
-2.0480403e-07
3.253141e-10
-1.3800949e-07
2.122451e-10
-9.2758603e-08
1.3719473e-10
-6.2132599e-08
8.7829668e-11
-4.1460623e-08
5.5521332e-11
-2.7535163e-08
3.4503606e-11
-1.816328e-08
2.0928566e-11
-1.1864336e-08
1.2270125e-11
-7.6417455e-09
6.8464594e-12
-4.8234139e-09
3.5437641e-12
-2.9546393e-09
1.6234935e-12
-1.7270143e-09
5.9157061e-13
-9.3104715e-10
1.2208656e-13
-4.2439354e-10
-1.104112e-10
-1.329318e-08
-4.2477227e-05
-2.2853099e-08
-3.5165634e-05
-2.5336578e-08
-2.8160719e-05
-1.7345387e-08
-2.10657e-05
-5.3269194e-09
-1.4290016e-05
2.1459395e-09
-9.3223052e-06
5.1630535e-09
-6.1302514e-06
5.7309936e-09
-4.1240177e-06
5.1809952e-09
-2.8369162e-06
4.2223497e-09
-1.9905849e-06
3.2003602e-09
-1.405777e-06
2.295767e-09
-9.7231039e-07
1.6062188e-09
-6.5858477e-07
1.1034909e-09
-4.4704554e-07
7.4273867e-10
-3.0294878e-07
4.9377978e-10
-2.0455507e-07
3.2516571e-10
-1.3784089e-07
2.1217495e-10
-9.2645606e-08
1.3716764e-10
-6.2057613e-08
8.7829066e-11
-4.1411282e-08
5.5527874e-11
-2.750288e-08
3.4521292e-11
-1.8142272e-08
2.0943897e-11
-1.1850772e-08
1.2289455e-11
-7.6330925e-09
6.861182e-12
-4.8179946e-09
3.559384e-12
-2.9513399e-09
1.6322647e-12
-1.7250946e-09
5.9522914e-13
-9.3001546e-10
1.2203811e-13
-4.2392415e-10
-1.1028916e-10
-1.3303491e-08
-4.2463924e-05
-2.2875319e-08
-3.5156062e-05
-2.538622e-08
-2.8158208e-05
-1.7431478e-08
-2.1073655e-05
-5.396595e-09
-1.4302051e-05
2.1050237e-09
-9.3298068e-06
5.1441646e-09
-6.1332906e-06
5.7222034e-09
-4.1245957e-06
5.1762346e-09
-2.8363702e-06
4.2192307e-09
-1.9896278e-06
3.1980205e-09
-1.4047558e-06
2.2939568e-09
-9.7140631e-07
1.6048194e-09
-6.5789565e-07
1.102475e-09
-4.4654319e-07
7.4205177e-10
-3.0258837e-07
4.9333892e-10
-2.0430634e-07
3.2488119e-10
-1.3767245e-07
2.1198521e-10
-9.25327e-08
1.3704278e-10
-6.1982684e-08
8.7745737e-11
-4.1361977e-08
5.5471903e-11
-2.7470617e-08
3.4477876e-11
-1.8121276e-08
2.0912694e-11
-1.1837214e-08
1.2262316e-11
-7.6244432e-09
6.8415322e-12
-4.8125773e-09
3.5413146e-12
-2.9480417e-09
1.622208e-12
-1.7231755e-09
5.9108431e-13
-9.2898411e-10
1.2200115e-13
-4.234549e-10
-1.1016716e-10
-1.3314418e-08
-4.2450609e-05
-2.2898581e-08
-3.5146478e-05
-2.5437071e-08
-2.815567e-05
-1.7517996e-08
-2.1081574e-05
-5.4674457e-09
-1.4314102e-05
2.0630167e-09
-9.3373372e-06
5.124597e-09
-6.1363522e-06
5.712874e-09
-4.125184e-06
5.1709545e-09
-2.8358283e-06
4.2157199e-09
-1.9886726e-06
3.1953856e-09
-1.4037355e-06
2.2919266e-09
-9.7050284e-07
1.6032982e-09
-6.5720703e-07
1.1013806e-09
-4.4604125e-07
7.4133581e-10
-3.0222833e-07
4.9289277e-10
-2.0405789e-07
3.2461232e-10
-1.3750418e-07
2.1182613e-10
-9.2419905e-08
1.3695672e-10
-6.1907826e-08
8.7700606e-11
-4.1312718e-08
5.5452808e-11
-2.7438379e-08
3.4470627e-11
-1.8100293e-08
2.0913434e-11
-1.1823663e-08
1.2267315e-11
-7.6157981e-09
6.8476225e-12
-4.8071622e-09
3.5500744e-12
-2.9447446e-09
1.6271533e-12
-1.7212569e-09
5.9316163e-13
-9.2795302e-10
1.2197202e-13
-4.2298577e-10
-1.1004519e-10
-1.3325912e-08
-4.2437283e-05
-2.2922753e-08
-3.5136881e-05
-2.5488614e-08
-2.8153104e-05
-1.7605223e-08
-2.1089457e-05
-5.5390864e-09
-1.4326168e-05
2.0200426e-09
-9.3448964e-06
5.1043775e-09
-6.1394365e-06
5.703161e-09
-4.1257828e-06
5.1652887e-09
-2.8352904e-06
4.2118843e-09
-1.9877192e-06
3.1924688e-09
-1.4027161e-06
2.2896666e-09
-9.6960002e-07
1.6015978e-09
-6.5651896e-07
1.1001258e-09
-4.4553977e-07
7.4048352e-10
-3.018687e-07
4.9232822e-10
-2.0380971e-07
3.2423781e-10
-1.373361e-07
2.1157646e-10
-9.2307234e-08
1.3679326e-10
-6.1833049e-08
8.759392e-11
-4.1263512e-08
5.538381e-11
-2.7406173e-08
3.442199e-11
-1.8079329e-08
2.0880606e-11
-1.1810124e-08
1.2242082e-11
-7.6071599e-09
6.8303874e-12
-4.801751e-09
3.5344941e-12
-2.9414499e-09
1.6190242e-12
-1.7193397e-09
5.8985272e-13
-9.2692258e-10
1.2190152e-13
-4.2251692e-10
-1.0992328e-10
-1.3337906e-08
-4.2423945e-05
-2.2947766e-08
-3.5127272e-05
-2.5540385e-08
-2.8150511e-05
-1.7693433e-08
-2.1097304e-05
-5.6112966e-09
-1.433825e-05
1.9764082e-09
-9.3524841e-06
5.0837499e-09
-6.1425438e-06
5.6930868e-09
-4.1263921e-06
5.1594764e-09
-2.8347568e-06
4.2079778e-09
-1.9867677e-06
3.1895238e-09
-1.4016977e-06
2.2873922e-09
-9.6869788e-07
1.599908e-09
-6.5583149e-07
1.0989087e-09
-4.4503876e-07
7.3969098e-10
-3.0150949e-07
4.9182506e-10
-2.0356184e-07
3.2393017e-10
-1.3716822e-07
2.1139534e-10
-9.2194696e-08
1.3669073e-10
-6.1758362e-08
8.7544471e-11
-4.1214366e-08
5.5361472e-11
-2.7374005e-08
3.4421738e-11
-1.805839e-08
2.0887197e-11
-1.1796601e-08
1.2256746e-11
-7.5985317e-09
6.843866e-12
-4.7963461e-09
3.5506409e-12
-2.938159e-09
1.6283633e-12
-1.7174246e-09
5.9382289e-13
-9.2589337e-10
1.2175356e-13
-4.2204863e-10
-1.0980153e-10
-1.3350329e-08
-4.2410595e-05
-2.2973609e-08
-3.5117648e-05
-2.5592844e-08
-2.8147892e-05
-1.778167e-08
-2.1105115e-05
-5.6840103e-09
-1.4350348e-05
1.9321337e-09
-9.3601002e-06
5.0627732e-09
-6.1456745e-06
5.6827512e-09
-4.1270121e-06
5.1535486e-09
-2.8342276e-06
4.2039677e-09
-1.9858181e-06
3.1864858e-09
-1.4006802e-06
2.2850176e-09
-9.6779641e-07
1.5980875e-09
-6.5514457e-07
1.0975686e-09
-4.4453823e-07
7.3876344e-10
-3.011507e-07
4.9120083e-10
-2.0331427e-07
3.2351029e-10
-1.3700054e-07
2.1110807e-10
-9.2082286e-08
1.3649433e-10
-6.1683758e-08
8.7409442e-11
-4.1165274e-08
5.52684e-11
-2.7341872e-08
3.4353758e-11
-1.8037473e-08
2.0838922e-11
-1.1783092e-08
1.2219066e-11
-7.5899126e-09
6.8172489e-12
-4.7909469e-09
3.528073e-12
-2.9348716e-09
1.616058e-12
-1.7155117e-09
5.8880827e-13
-9.2486523e-10
1.2162925e-13
-4.2158083e-10
-1.096799e-10
-1.3363023e-08
-4.2397232e-05
-2.3000125e-08
-3.5108011e-05
-2.564553e-08
-2.8145247e-05
-1.7870211e-08
-2.111289e-05
-5.7573306e-09
-1.4362461e-05
1.8871053e-09
-9.3677446e-06
5.0413902e-09
-6.1488288e-06
5.672227e-09
-4.1276429e-06
5.1473736e-09
-2.8337028e-06
4.1997038e-09
-1.9848704e-06
3.183263e-09
-1.3996637e-06
2.2825222e-09
-9.6689566e-07
1.5961795e-09
-6.5445823e-07
1.096194e-09
-4.4403824e-07
7.3783697e-10
-3.0079235e-07
4.9059952e-10
-2.0306703e-07
3.2313493e-10
-1.3683309e-07
2.1088598e-10
-9.197003e-08
1.3636503e-10
-6.1609246e-08
8.7333084e-11
-4.111624e-08
5.5228243e-11
-2.7309774e-08
3.4333156e-11
-1.8016578e-08
2.0832404e-11
-1.1769597e-08
1.2220096e-11
-7.5813013e-09
6.8218673e-12
-4.7855525e-09
3.5368494e-12
-2.9315869e-09
1.621167e-12
-1.7136002e-09
5.9100343e-13
-9.2383794e-10
1.2153273e-13
-4.2111339e-10
-1.0955837e-10
-1.3375864e-08
-4.2383856e-05
-2.3026854e-08
-3.509836e-05
-2.5698578e-08
-2.8142575e-05
-1.7959579e-08
-2.1120629e-05
-5.8312668e-09
-1.4374589e-05
1.8415483e-09
-9.3754175e-06
5.0198273e-09
-6.1520071e-06
5.6615759e-09
-4.1282847e-06
5.1410517e-09
-2.8331823e-06
4.1953302e-09
-1.9839247e-06
3.1799566e-09
-1.3986484e-06
2.2799446e-09
-9.6599563e-07
1.5941808e-09
-6.5377247e-07
1.0947325e-09
-4.4353878e-07
7.3682122e-10
-3.0043444e-07
4.8991114e-10
-2.028201e-07
3.2267724e-10
-1.3666586e-07
2.1059352e-10
-9.1857936e-08
1.361712e-10
-6.1534826e-08
8.7202604e-11
-4.1067264e-08
5.5140493e-11
-2.7277714e-08
3.4271977e-11
-1.7995706e-08
2.0790025e-11
-1.1756116e-08
1.2188682e-11
-7.572699e-09
6.8001281e-12
-4.7801635e-09
3.5181585e-12
-2.9283055e-09
1.61137e-12
-1.7116907e-09
5.870296e-13
-9.2281162e-10
1.2142523e-13
-4.2064639e-10
-1.0943694e-10
-1.3388839e-08
-4.2370467e-05
-2.3053619e-08
-3.5088695e-05
-2.5752763e-08
-2.8139876e-05
-1.8049146e-08
-2.1128333e-05
-5.9053329e-09
-1.4386733e-05
1.7955162e-09
-9.3831183e-06
4.9979549e-09
-6.1552095e-06
5.650794e-09
-4.1289375e-06
5.1347474e-09
-2.8326662e-06
4.1909976e-09
-1.9829809e-06
3.1767101e-09
-1.3976341e-06
2.2774349e-09
-9.6509636e-07
1.5922697e-09
-6.5308731e-07
1.0933638e-09
-4.4303987e-07
7.3591406e-10
-3.00077e-07
4.8932725e-10
-2.0257352e-07
3.223227e-10
-1.3649886e-07
2.1038981e-10
-9.1746004e-08
1.3605962e-10
-6.146051e-08
8.7144922e-11
-4.1018352e-08
5.5115356e-11
-2.7245696e-08
3.4268279e-11
-1.7974861e-08
2.0796235e-11
-1.1742652e-08
1.2201949e-11
-7.5641078e-09
6.8137022e-12
-4.7747818e-09
3.5345211e-12
-2.9250285e-09
1.6209144e-12
-1.7097838e-09
5.9110405e-13
-9.2178673e-10
1.2125426e-13
-4.2018003e-10
-1.0931569e-10
-1.3401966e-08
-4.2357065e-05
-2.3080529e-08
-3.5079017e-05
-2.580714e-08
-2.8137149e-05
-1.8138842e-08
-2.1136001e-05
-5.979964e-09
-1.4398892e-05
1.74881e-09
-9.3908471e-06
4.9757709e-09
-6.1584365e-06
5.6397441e-09
-4.1296015e-06
5.1283183e-09
-2.8321548e-06
4.1865188e-09
-1.9820391e-06
3.1733169e-09
-1.3966209e-06
2.2747899e-09
-9.6419782e-07
1.590238e-09
-6.5240276e-07
1.0918628e-09
-4.4254149e-07
7.3487142e-10
-2.9972001e-07
4.8862593e-10
-2.0232726e-07
3.2185386e-10
-1.363321e-07
2.100722e-10
-9.1634217e-08
1.3584646e-10
-6.138629e-08
8.6998501e-11
-4.09695e-08
5.5014136e-11
-2.7213717e-08
3.4195802e-11
-1.7954041e-08
2.0743822e-11
-1.1729204e-08
1.2162099e-11
-7.5555263e-09
6.7851988e-12
-4.7694062e-09
3.5105381e-12
-2.9217552e-09
1.6079219e-12
-1.7078791e-09
5.8580884e-13
-9.2076304e-10
1.2111326e-13
-4.1971421e-10
-1.0919458e-10
-1.3415274e-08
-4.234365e-05
-2.3107661e-08
-3.5069324e-05
-2.5861299e-08
-2.8134396e-05
-1.8229012e-08
-2.1143634e-05
-6.0551133e-09
-1.4411066e-05
1.7016831e-09
-9.3986039e-06
4.9534495e-09
-6.1616882e-06
5.6286256e-09
-4.1302766e-06
5.1218075e-09
-2.831648e-06
4.1819801e-09
-1.9810993e-06
3.1698959e-09
-1.3956088e-06
2.2721556e-09
-9.6330008e-07
1.5882604e-09
-6.5171887e-07
1.0904241e-09
-4.4204364e-07
7.339093e-10
-2.993635e-07
4.8801405e-10
-2.0208136e-07
3.2147779e-10
-1.3616557e-07
2.0984455e-10
-9.152258e-08
1.3572318e-10
-6.1312175e-08
8.693126e-11
-4.0920707e-08
5.4982986e-11
-2.7181774e-08
3.4183007e-11
-1.7933242e-08
2.0743345e-11
-1.1715768e-08
1.2167399e-11
-7.5469518e-09
6.7928846e-12
-4.7640347e-09
3.5214646e-12
-2.9184842e-09
1.6141635e-12
-1.7059756e-09
5.884632e-13
-9.1973999e-10
1.2104195e-13
-4.1924867e-10
-1.0907353e-10
-1.3428804e-08
-4.2330221e-05
-2.3135191e-08
-3.5059618e-05
-2.5915986e-08
-2.8131615e-05
-1.8319016e-08
-2.1151231e-05
-6.1301941e-09
-1.4423254e-05
1.6542078e-09
-9.4063883e-06
4.9310226e-09
-6.164965e-06
5.617552e-09
-4.1309632e-06
5.1152428e-09
-2.8311457e-06
4.1774131e-09
-1.9801615e-06
3.1664499e-09
-1.3945979e-06
2.2694966e-09
-9.6240312e-07
1.5862438e-09
-6.5103562e-07
1.088926e-09
-4.4154632e-07
7.3286878e-10
-2.9900745e-07
4.8731523e-10
-2.018358e-07
3.2100855e-10
-1.3599926e-07
2.0952981e-10
-9.1411094e-08
1.3551899e-10
-6.1238165e-08
8.6797586e-11
-4.087198e-08
5.4894056e-11
-2.7149871e-08
3.4122432e-11
-1.7912467e-08
2.0701382e-11
-1.1702347e-08
1.2137088e-11
-7.5383864e-09
6.7717814e-12
-4.7586687e-09
3.5035077e-12
-2.9152164e-09
1.6047253e-12
-1.7040739e-09
5.846342e-13
-9.1871786e-10
1.209425e-13
-4.1878353e-10
-1.0895259e-10
-1.3442589e-08
-4.2316779e-05
-2.3163094e-08
-3.5049897e-05
-2.5970577e-08
-2.8128807e-05
-1.8409183e-08
-2.1158792e-05
-6.2055488e-09
-1.4435458e-05
1.6063679e-09
-9.4142002e-06
4.9084475e-09
-6.1682671e-06
5.606327e-09
-4.131661e-06
5.1086157e-09
-2.830648e-06
4.1728472e-09
-1.9792257e-06
3.1630462e-09
-1.3935881e-06
2.2668935e-09
-9.6150696e-07
1.584279e-09
-6.5035302e-07
1.0875042e-09
-4.4104955e-07
7.3191986e-10
-2.9865188e-07
4.8671003e-10
-2.015906e-07
3.2063539e-10
-1.358332e-07
2.0930885e-10
-9.1299776e-08
1.3539966e-10
-6.1164271e-08
8.6739295e-11
-4.0823329e-08
5.4872809e-11
-2.7118017e-08
3.412274e-11
-1.7891725e-08
2.0713475e-11
-1.1688947e-08
1.2155247e-11
-7.5298342e-09
6.7900262e-12
-4.7533109e-09
3.5237624e-12
-2.9119536e-09
1.6166391e-12
-1.7021752e-09
5.8970008e-13
-9.1769733e-10
1.2074628e-13
-4.1831913e-10
-1.0883185e-10
-1.3456628e-08
-4.2303322e-05
-2.3191448e-08
-3.5040163e-05
-2.6024779e-08
-2.8125974e-05
-1.8499624e-08
-2.1166317e-05
-6.2814798e-09
-1.4447676e-05
1.5580107e-09
-9.4220397e-06
4.885655e-09
-6.1715948e-06
5.5949741e-09
-4.1323704e-06
5.1019379e-09
-2.8301549e-06
4.1682132e-09
-1.978292e-06
3.1595606e-09
-1.3925794e-06
2.2641916e-09
-9.6061159e-07
1.5821672e-09
-6.49671e-07
1.0859424e-09
-4.4055332e-07
7.3082192e-10
-2.9829676e-07
4.859576e-10
-2.0134573e-07
3.2011177e-10
-1.3566736e-07
2.08946e-10
-9.1188611e-08
1.3514794e-10
-6.109048e-08
8.6565078e-11
-4.0774745e-08
5.4749132e-11
-2.7086207e-08
3.4034249e-11
-1.787101e-08
2.0648159e-11
-1.1675566e-08
1.2106223e-11
-7.5212939e-09
6.7543213e-12
-4.7479606e-09
3.4938001e-12
-2.9086953e-09
1.6002962e-12
-1.7002792e-09
5.83025e-13
-9.1667826e-10
1.205714e-13
-4.178554e-10
-1.0871127e-10
-1.3470816e-08
-4.2289851e-05
-2.3220479e-08