/*--------------------------------*- C++ -*----------------------------------*\
| =========                 |                                                 |
| \\      /  F ield         | OpenFOAM: The Open Source CFD Toolbox           |
|  \\    /   O peration     | Version:  v2012                                 |
|   \\  /    A nd           | Website:  www.openfoam.com                      |
|    \\/     M anipulation  |                                                 |
\*---------------------------------------------------------------------------*/
FoamFile
{
    version     2.0;
    format      ascii;
    class       volScalarField;
    location    "550";
    object      rho;
}
// * * * * * * * * * * * * * * * * * * * * * * * * * * * * * * * * * * * * * //

dimensions      [1 -3 0 0 0 0 0];


internalField   nonuniform List<scalar> 
24000
(
22.467933
22.184451
20.9968
18.343281
14.320682
10.685234
8.0079396
6.1415723
4.8459149
3.9502992
3.2909356
2.7385808
2.3043319
2.0092199
1.8040586
1.6578388
1.5523624
1.474575
1.4160282
1.3712846
1.3366296
1.309443
1.2878733
1.2705969
1.256652
1.2453234
1.2360722
1.2284833
1.2222348
1.2170729
22.469589
22.187043
21.00326
18.35934
14.343043
10.703088
8.01932
6.149011
4.8505424
3.9529064
3.2923562
2.739433
2.3048733
2.0095062
1.804196
1.6579139
1.5524115
1.4746164
1.4160712
1.371333
1.3366845
1.3095042
1.2879398
1.2706677
1.256726
1.2453996
1.2361497
1.2285615
1.2223129
1.2171504
22.471284
22.189719
21.010257
18.375974
14.364455
10.719163
8.0293008
6.1553481
4.8541151
3.9545723
3.292955
2.7396372
2.3049314
2.0094682
1.8041196
1.6578445
1.5523577
1.4745785
1.4160478
1.371322
1.3366836
1.3095113
1.2879533
1.2706862
1.2567483
1.2454247
1.2361767
1.2285896
1.2223415
1.217179
22.472986
22.192474
21.017402
18.392496
14.385405
10.734737
8.0392192
6.1613018
4.857308
3.9559715
3.2933421
2.739607
2.3047953
2.0092854
1.8039294
1.6576784
1.552216
1.4744566
1.4159423
1.3712305
1.3366037
1.3094406
1.2878899
1.2706286
1.256695
1.2453746
1.236129
1.2285436
1.2222967
1.2171348
22.474691
22.195265
21.024598
18.408944
14.406137
10.750203
8.0489925
6.1669468
4.8602088
3.9571377
3.2935274
2.7393729
2.3044868
2.0089772
1.80365
1.6574503
1.5520328
1.4743081
1.4158207
1.3711296
1.3365184
1.3093671
1.2878254
1.2705708
1.2566423
1.2453257
1.2360828
1.2284993
1.2222537
1.2170925
22.476395
22.198075
21.031795
18.425303
14.426754
10.76567
8.0586546
6.1724128
4.8629403
3.9581682
3.2935916
2.7390095
2.3040643
2.0085806
1.803301
1.6571653
1.5518011
1.4741165
1.4156597
1.370992
1.3363985
1.3092605
1.2877289
1.270482
1.2565592
1.245247
1.2360072
1.228426
1.2221821
1.2170219
22.478099
22.200892
21.038974
18.441588
14.447309
10.781162
8.0682479
6.1777703
4.8655663
3.9591112
3.2935762
2.7385615
2.3035676
2.0081278
1.8029096
1.6568482
1.5515448
1.4739058
1.4154831
1.3708412
1.3362669
1.3091433
1.2876223
1.2703836
1.2564668
1.2451593
1.2359228
1.2283441
1.2221019
1.2169428
22.479801
22.20371
21.046127
18.45781
14.467834
10.796689
8.0778033
6.1830633
4.8681269
3.9599981
3.2935088
2.7380575
2.3030214
2.0076371
1.8024891
1.6565083
1.55127
1.4736797
1.4152934
1.3706785
1.3361245
1.3090159
1.2875061
1.2702759
1.2563653
1.2450627
1.2358297
1.2282536
1.2220132
1.2168553
22.481501
22.206525
21.053252
18.473975
14.488345
10.812256
8.0873438
6.1883202
4.8706471
3.9608487
3.2934069
2.7375164
2.3024426
2.0071215
1.8020498
1.6561539
1.5509838
1.4734443
1.4150959
1.3705089
1.3359758
1.3088827
1.2873844
1.2701629
1.2562588
1.2449612
1.2357317
1.2281583
1.2219198
1.2167632
22.483198
22.209337
21.06035
18.49009
14.508857
10.827867
8.0968835
6.193558
4.8731424
3.9616756
3.2932819
2.7369501
2.3018417
2.0065891
1.8015977
1.6557894
1.5506896
1.4732024
1.4148928
1.3703345
1.3358227
1.3087453
1.2872587
1.2700461
1.2561486
1.244856
1.2356302
1.2280595
1.2218229
1.2166676
22.484893
22.212144
21.067422
18.506163
14.529374
10.843521
8.1064343
6.1987885
4.8756226
3.9624871
3.2931413
2.7363665
2.3012257
2.0060454
1.8011371
1.6554184
1.5503903
1.4729562
1.414686
1.3701571
1.3356667
1.3086053
1.2871306
1.2699269
1.2560361
1.2447486
1.2355266
1.2279586
1.2217239
1.2165699
22.486585
22.214946
21.07447
18.522193
14.549907
10.859222
8.1160025
6.2040203
4.8780951
3.9632891
3.2929901
2.7357711
2.3005993
2.0054939
1.8006708
1.655043
1.5500873
1.4727071
1.4144768
1.3699775
1.3355088
1.3084634
1.2870007
1.269806
1.255922
1.2446396
1.2354214
1.2278561
1.2216234
1.2164707
22.488273
22.217743
21.081495
18.538188
14.570457
10.87497
8.1255945
6.2092579
4.8805649
3.9640853
3.2928316
2.7351672
2.2999658
2.0049371
1.8002005
1.6546646
1.5497821
1.4724559
1.4142658
1.3697965
1.3353495
1.3083203
1.2868698
1.2696841
1.2558069
1.2445295
1.2353152
1.2277527
1.2215219
1.2163705
22.48996
22.220535
21.088496
18.554148
14.591028
10.890765
8.1352134
6.214506
4.8830354
3.9648784
3.2926682
2.7345574
2.2993271
2.0043766
1.7997276
1.6542843
1.5494753
1.4722034
1.4140537
1.3696144
1.3351894
1.3081765
1.286738
1.2695613
1.255691
1.2444188
1.2352083
1.2276486
1.2214197
1.2162697
22.491643
22.223322
21.095475
18.570075
14.611623
10.906609
8.1448631
6.2197674
4.8855084
3.9656702
3.2925015
2.7339435
2.298685
2.0038137
1.799253
1.6539026
1.5491675
1.47195
1.413841
1.3694318
1.3350288
1.3080323
1.2866059
1.2694382
1.2555748
1.2443076
1.235101
1.2275442
1.2213172
1.2161685
22.493324
22.226103
21.102432
18.585972
14.632243
10.9225
8.1545452
6.2250436
4.8879858
3.9664619
3.2923327
2.7333268
2.2980405
2.0032492
1.7987773
1.6535204
1.5488592
1.4716963
1.4136277
1.3692488
1.334868
1.3078877
1.2864734
1.2693148
1.2554583
1.2441962
1.2349935
1.2274394
1.2212144
1.2160671
22.495002
22.228879
21.109368
18.601839
14.652889
10.938439
8.1642622
6.2303372
4.8904692
3.9672546
3.2921627
2.7327082
2.2973945
2.0026839
1.7983013
1.6531378
1.5485507
1.4714425
1.4134144
1.3690657
1.3347071
1.3077431
1.2863409
1.2691913
1.2553417
1.2440847
1.2348858
1.2273346
1.2211115
1.2159657
22.496677
22.231651
21.116283
18.617675
14.673563
10.954427
8.1740149
6.2356484
4.8929596
3.9680488
3.2919922
2.7320883
2.2967477
2.0021181
1.7978252
1.6527551
1.5482422
1.4711889
1.4132011
1.3688824
1.3345461
1.3075984
1.2862083
1.2690678
1.2552251
1.2439731
1.2347781
1.2272297
1.2210086
1.2158641
22.49835
22.234417
21.123179
18.633486
14.694265
10.970464
8.1838052
6.2409786
4.8954578
3.9688451
3.2918217
2.7314678
2.2961004
2.0015522
1.7973493
1.6523726
1.5479339
1.4709355
1.4129881
1.3686995
1.3343853
1.3074538
1.2860759
1.2689444
1.2551085
1.2438616
1.2346705
1.2271249
1.2209058
1.2157627
22.50002
22.237179
21.130056
18.649267
14.714996
10.986549
8.1936335
6.2463291
4.8979637
3.969644
3.2916516
2.730847
2.2954532
2.0009865
1.7968738
1.6519905
1.5476259
1.4706825
1.4127755
1.3685167
1.3342246
1.3073093
1.2859436
1.2688211
1.2549921
1.2437502
1.234563
1.2270202
1.2208031
1.2156614
22.501687
22.239937
21.136915
18.66502
14.735754
11.002684
8.2035013
6.2516996
4.9004781
3.9704459
3.2914822
2.730226
2.2948059
2.0004212
1.7963987
1.6516089
1.5473183
1.4704297
1.4125632
1.3683342
1.3340642
1.3071652
1.2858115
1.2686981
1.2548759
1.2436391
1.2344557
1.2269157
1.2207007
1.2155603
22.503352
22.242689
21.143754
18.680748
14.756543
11.018866
8.213409
6.2570912
4.9030017
3.9712512
3.2913137
2.7296053
2.2941589
1.9998564
1.7959242
1.6512278
1.5470112
1.4701773
1.4123512
1.3681518
1.3339039
1.3070212
1.2856796
1.2685752
1.2547597
1.2435281
1.2343484
1.2268112
1.2205983
1.2154593
22.505013
22.245438
21.150573
18.696447
14.777361
11.035098
8.2233574
6.2625044
4.9055348
3.97206
3.2911464
2.7289851
2.2935123
1.9992924
1.7954504
1.6508475
1.5467047
1.4699252
1.4121396
1.3679701
1.333744
1.3068775
1.2855479
1.2684526
1.2546439
1.2434174
1.2342415
1.226707
1.2204962
1.2153585
22.506672
22.248181
21.157373
18.71212
14.798208
11.051378
8.2333472
6.267939
4.9080772
3.9728727
3.2909803
2.7283653
2.2928664
1.9987289
1.7949774
1.6504678
1.5463986
1.4696735
1.4119283
1.3677887
1.3335844
1.3067341
1.2854165
1.2683303
1.2545282
1.2433069
1.2341347
1.226603
1.2203942
1.2152579
22.508329
22.25092
21.164153
18.727767
14.819083
11.067707
8.2433788
6.2733963
4.9106291
3.9736896
3.2908155
2.7277463
2.2922213
1.9981663
1.7945053
1.6500889
1.5460931
1.4694223
1.4117175
1.3676077
1.3334253
1.3065911
1.2852854
1.2682082
1.2544129
1.2431967
1.2340282
1.2264994
1.2202926
1.2151576
22.509982
22.253655
21.170916
18.743387
14.839989
11.084084
8.253453
6.2788756
4.9131908
3.9745105
3.2906522
2.7271279
2.291577
1.9976046
1.7940342
1.6497107
1.5457882
1.4691714
1.411507
1.3674271
1.3332664
1.3064482
1.2851545
1.2680864
1.2542977
1.2430867
1.2339219
1.2263958
1.2201911
1.2150575
22.511633
22.256385
21.17766
18.758979
14.860924
11.10051
8.26357
6.2843775
4.9157629
3.9753355
3.2904906
2.7265104
2.2909336
1.9970438
1.7935641
1.6493334
1.5454841
1.4689212
1.411297
1.3672469
1.3331079
1.3063058
1.2850241
1.2679649
1.2541829
1.242977
1.233816
1.2262926
1.2200899
1.2149576
22.513282
22.259111
21.184386
18.774548
14.881887
11.116984
8.2737308
6.2899027
4.918345
3.9761647
3.2903306
2.7258938
2.290291
1.9964841
1.793095
1.648957
1.5451808
1.4686719
1.4110875
1.3670671
1.3329497
1.3061637
1.2848939
1.2678437
1.2540684
1.2428676
1.2337103
1.2261897
1.2199889
1.214858
22.514927
22.261832
21.191096
18.790088
14.90288
11.133506
8.2839352
6.2954505
4.9209371
3.976998
3.2901722
2.725278
2.2896492
1.9959254
1.7926269
1.6485814
1.5448783
1.4684235
1.4108785
1.3668878
1.3327921
1.3060221
1.2847642
1.2677229
1.2539543
1.2427585
1.2336049
1.2260871
1.2198883
1.2147587
22.51657
22.264548
21.197785
18.805601
14.923901
11.150076
8.2941845
6.301022
4.9235394
3.9778356
3.2900156
2.724663
2.2890082
1.9953678
1.7921598
1.6482067
1.5445765
1.4681756
1.4106701
1.3667088
1.3326349
1.3058808
1.2846347
1.2676022
1.2538404
1.2426496
1.2334998
1.2259847
1.2197878
1.2146595
22.51821
22.267259
21.204456
18.82109
14.944952
11.166695
8.3044784
6.3066169
4.9261524
3.9786774
3.2898608
2.724049
2.2883683
1.9948112
1.7916939
1.647833
1.5442756
1.4679284
1.4104623
1.3665304
1.3324781
1.3057399
1.2845056
1.267482
1.2537268
1.2425411
1.233395
1.2258827
1.2196877
1.2145607
22.519847
22.269966
21.211108
18.83655
14.96603
11.183361
8.3148181
6.3122352
4.928776
3.9795234
3.2897078
2.7234361
2.2877294
1.9942556
1.7912289
1.6474602
1.5439754
1.4676818
1.4102552
1.3663524
1.3323217
1.3055993
1.2843769
1.267362
1.2536136
1.2424328
1.2332905
1.2257809
1.2195878
1.2144621
22.521482
22.272668
21.217741
18.851984
14.987137
11.200074
8.3252034
6.3178778
4.9314099
3.9803737
3.2895566
2.7228241
2.2870916
1.9937011
1.7907651
1.6470884
1.5436759
1.4674357
1.4100487
1.3661749
1.3321658
1.3054592
1.2842485
1.2672425
1.2535007
1.2423248
1.2331863
1.2256795
1.2194882
1.2143638
22.523113
22.275365
21.224356
18.867394
15.008273
11.216836
8.3356352
6.3235439
4.9340543
3.9812286
3.2894074
2.7222132
2.2864547
1.9931476
1.7903023
1.6467175
1.543377
1.4671901
1.4098427
1.3659978
1.3320101
1.3053193
1.2841204
1.2671231
1.253388
1.2422171
1.2330823
1.2255782
1.2193888
1.2142657
22.524742
22.278058
21.230953
18.882774
15.029436
11.233644
8.3461139
6.3292344
4.9367094
3.9820878
3.2892601
2.7216034
2.2858188
1.9925953
1.7898407
1.6463475
1.5430789
1.4669451
1.4096372
1.3658213
1.331855
1.3051799
1.2839928
1.2670042
1.2532757
1.2421097
1.2329787
1.2254772
1.2192897
1.214168
22.526368
22.280745
21.237533
18.898128
15.050628
11.2505
8.3566398
6.3349491
4.9393755
3.9829517
3.2891148
2.7209947
2.2851838
1.9920442
1.7893804
1.6459786
1.5427815
1.4667008
1.4094323
1.3656453
1.3317003
1.3050409
1.2838654
1.2668856
1.2531637
1.2420026
1.2328753
1.2253766
1.219191
1.2140706
22.527991
22.283428
21.244097
18.913457
15.071847
11.267403
8.3672136
6.340688
4.9420523
3.9838208
3.2889715
2.720387
2.2845499
1.9914945
1.7889213
1.6456108
1.5424852
1.4664571
1.4092279
1.36547
1.3315461
1.3049024
1.2837386
1.2667674
1.2530522
1.2418959
1.2327723
1.2252763
1.2190926
1.2139735
22.529611
22.286105
21.250641
18.928758
15.093094
11.284352
8.3778356
6.346452
4.9447398
3.9846947
3.2888303
2.7197804
2.283917
1.9909459
1.7884633
1.6452438
1.5421896
1.466214
1.409024
1.365295
1.3313922
1.3047642
1.2836119
1.2666495
1.2529408
1.2417894
1.2326695
1.2251761
1.2189944
1.2138766
22.531228
22.288777
21.257166
18.944032
15.114368
11.301348
8.3885064
6.3522401
4.9474384
3.9855735
3.2886912
2.7191748
2.2832853
1.9903985
1.7880066
1.644878
1.5418952
1.465972
1.4088207
1.3651206
1.3312389
1.3046264
1.2834857
1.266532
1.2528298
1.2416833
1.232567
1.2250764
1.2188965
1.2137801
22.532841
22.291444
21.263672
18.95928
15.13567
11.318391
8.3992262
6.3580535
4.9501482
3.9864569
3.288554
2.7185704
2.2826547
1.9898523
1.7875512
1.6445131
1.5416016
1.4657309
1.4086179
1.3649467
1.3310859
1.304489
1.2833598
1.2664148
1.252719
1.2415774
1.2324648
1.2249768
1.218799
1.2136838
22.534452
22.294105
21.27016
18.9745
15.157
11.33548
8.409996
6.3638917
4.9528691
3.9873449
3.288419
2.7179671
2.2820254
1.9893072
1.7870968
1.6441494
1.5413089
1.4654905
1.4084159
1.3647733
1.3309335
1.304352
1.2832344
1.266298
1.2526087
1.241472
1.232363
1.2248777
1.2187018
1.2135879
22.536059
22.296761
21.27663
18.989693
15.178355
11.352615
8.4208154
6.3697547
4.9556009
3.9882372
3.2882861
2.717365
2.2813969
1.9887634
1.7866436
1.6437867
1.5410169
1.4652507
1.4082143
1.3646003
1.3307813
1.3042153
1.2831091
1.2661814
1.2524986
1.2413668
1.2322613
1.2247787
1.2186047
1.2134921
22.537663
22.299412
21.283082
19.004861
15.199739
11.369797
8.4316855
6.3756434
4.9583439
3.9891339
3.2881554
2.7167642
2.2807696
1.988221
1.7861917
1.6434251
1.5407258
1.4650116
1.4080135
1.3644279
1.3306298
1.3040792
1.2829844
1.2660653
1.2523889
1.241262
1.2321601
1.2246801
1.2185081
1.2133968
22.539263
22.302058
21.289517
19.02
15.221149
11.387024
8.4426064
6.3815568
4.9610984
3.9900352
3.2880268
2.7161648
2.2801435
1.98768
1.7857412
1.6430646
1.5404355
1.4647732
1.4078134
1.3642559
1.3304787
1.3039434
1.2828601
1.2659495
1.2522795
1.2411574
1.2320591
1.2245817
1.2184116
1.2133016
22.540861
22.304698
21.295936
19.035111
15.242585
11.404297
8.4535788
6.3874961
4.9638643
3.9909418
3.2879006
2.7155665
2.2795186
1.9871403
1.7852922
1.6427052
1.540146
1.4645356
1.4076141
1.3640847
1.3303282
1.3038082
1.2827362
1.2658342
1.2521705
1.2410533
1.2319586
1.2244838
1.2183156
1.2132069
22.542455
22.307333
21.302336
19.050198
15.264049
11.421615
8.4646027
6.3934605
4.9666414
3.9918533
3.2877765
2.7149694
2.2788949
1.986602
1.7848445
1.6423469
1.5398572
1.4642985
1.4074152
1.3639138
1.3301781
1.3036732
1.2826125
1.265719
1.2520617
1.2409494
1.2318582
1.224386
1.2182198
1.2131123
22.544046
22.309963
21.308717
19.065256
15.285538
11.438978
8.4756789
6.3994505
4.96943
3.9927702
3.2876546
2.7143735
2.2782725
1.9860651
1.7843982
1.6419899
1.5395696
1.4640622
1.4072171
1.3637436
1.3300285
1.3035388
1.2824894
1.2656044
1.2519534
1.2408459
1.2317582
1.2242887
1.2181243
1.2130181
22.545633
22.312587
21.315079
19.080285
15.307054
11.456388
8.4868078
6.4054666
4.9722305
3.9936931
3.287535
2.7137788
2.2776515
1.9855295
1.7839532
1.6416338
1.5392829
1.4638265
1.4070194
1.3635738
1.3298793
1.3034047
1.2823666
1.26549
1.2518454
1.2407427
1.2316585
1.2241916
1.2180291
1.2129241
22.547217
22.315207
21.321423
19.09529
15.328597
11.473842
8.497989
6.411508
4.9750428
3.9946211
3.2874175
2.7131855
2.2770316
1.9849953
1.7835094
1.6412789
1.5389974
1.4635915
1.4068225
1.3634047
1.3297306
1.3032712
1.2822443
1.265376
1.2517378
1.2406398
1.2315593
1.224095
1.2179342
1.2128305
22.548797
22.317821
21.327749
19.110266
15.350166
11.491341
8.5092236
6.4175758
4.9778666
3.9955537
3.2873022
2.7125934
2.2764129
1.9844624
1.7830668
1.640925
1.5387128
1.4633576
1.406626
1.363236
1.3295823
1.3031379
1.2821222
1.2652623
1.2516304
1.2405372
1.2314602
1.2239984
1.2178395
1.212737
22.550374
22.32043
21.334058
19.125213
15.37176
11.508886
8.5205116
6.423669
4.9807022
3.996491
3.2871893
2.7120027
2.2757956
1.9839311
1.7826257
1.6405725
1.5384293
1.4631247
1.4064302
1.3630681
1.3294346
1.3030051
1.2820006
1.265149
1.2515235
1.240435
1.2313615
1.2239024
1.2177452
1.212644
22.551947
22.323033
21.340349
19.140135
15.39338
11.526476
8.531853
6.4297886
4.9835499
3.997433
3.2870787
2.7114134
2.2751796
1.9834014
1.782186
1.6402211
1.5381466
1.4628925
1.4062351
1.3629006
1.3292873
1.3028728
1.2818794
1.2650361
1.2514169
1.240333
1.2312631
1.2238065
1.2176512
1.2125512
22.553517
22.325631
21.346623
19.155028
15.415026
11.544112
8.5432482
6.4359342
4.9864097
3.9983798
3.2869704
2.7108256
2.2745652
1.9828732
1.781748
1.6398711
1.5378649
1.4626613
1.4060407
1.3627339
1.3291407
1.3027411
1.2817587
1.2649237
1.2513108
1.2402315
1.2311651
1.2237111
1.2175575
1.2124588
22.555083
22.328224
21.35288
19.169893
15.436699
11.561793
8.5546978
6.4421058
4.9892815
3.9993318
3.2868645
2.7102392
2.2739522
1.9823465
1.7813115
1.6395221
1.5375839
1.4624306
1.4058469
1.3625675
1.3289944
1.3026096
1.2816383
1.2648115
1.2512048
1.2401302
1.2310673
1.2236159
1.2174641
1.2123666
22.556646
22.330811
21.359119
19.184731
15.458396
11.579519
8.5662011
6.4483041
4.9921654
4.0002899
3.2867609
2.7096542
2.2733407
1.9818214
1.7808765
1.6391744
1.5373039
1.4622008
1.4056539
1.3624018
1.3288487
1.3024787
1.2815184
1.2646998
1.2510993
1.2400293
1.23097
1.2235211
1.2173711
1.2122748
22.558204
22.333392
21.365339
19.199541
15.48012
11.597292
8.5777584
6.4545282
4.9950619
4.001253
3.2866597
2.7090706
2.2727306
1.9812979
1.7804429
1.6388279
1.5370247
1.4619717
1.4054616
1.3622366
1.3287034
1.3023481
1.2813988
1.2645885
1.2509941
1.2399287
1.2308729
1.2234265
1.2172783
1.2121833
22.559759
22.335968
21.371541
19.214322
15.501869
11.615111
8.58937
6.4607794
4.997971
4.0022227
3.2865607
2.7084884
2.2721221
1.980776
1.7800106
1.6384827
1.5367466
1.4617433
1.4052701
1.362072
1.3285587
1.3022181
1.2812797
1.2644776
1.2508894
1.2398286
1.2307762
1.2233324
1.217186
1.2120922
22.561311
22.338538
21.377725
19.229077
15.523643
11.632977
8.6010351
6.4670566
5.0008925
4.0031982
3.2864639
2.7079076
2.271515
1.9802555
1.7795797
1.6381385
1.5364695
1.4615156
1.4050791
1.3619079
1.3284144
1.3020884
1.2811608
1.2643669
1.2507849
1.2397287
1.2306797
1.2232384
1.2170938
1.2120012
22.562858
22.341103
21.38389
19.243804
15.545443
11.650891
8.6127543
6.4733607
5.0038265
4.0041788
3.2863696
2.7073284
2.2709096
1.9797367
1.7791503
1.6377955
1.5361937
1.4612888
1.4048889
1.3617445
1.3282708
1.3019593
1.2810425
1.2642568
1.2506808
1.2396292
1.2305837
1.2231449
1.2170021
1.2119107
22.564402
22.343663
21.390039
19.258501
15.567267
11.668853
8.6245268
6.4796914
5.0067735
4.0051644
3.2862776
2.7067508
2.2703058
1.9792195
1.7787224
1.6374539
1.535919
1.4610627
1.4046993
1.3615816
1.3281276
1.3018306
1.2809246
1.264147
1.250577
1.2395301
1.2304879
1.2230516
1.2169106
1.2118205
22.565942
22.346217
21.39617
19.27317
15.589118
11.686863
8.6363519
6.4860488
5.0097335
4.0061552
3.286188
2.7061748
2.2697039
1.9787041
1.7782963
1.6371136
1.5356455
1.4608378
1.4045106
1.3614195
1.3279851
1.3017025
1.2808072
1.2640377
1.2504738
1.2394314
1.2303926
1.2229588
1.2168196
1.2117307
22.567477
22.348764
21.402285
19.287813
15.610993
11.704925
8.6482299
6.4924334
5.0127061
4.0071514
3.2861009
2.7056004
2.2691036
1.9781904
1.7778717
1.6367746
1.5353728
1.4606138
1.4043224
1.3612578
1.3278429
1.3015747
1.2806901
1.2639286
1.2503707
1.2393329
1.2302975
1.2228662
1.2167288
1.2116411
22.569009
22.351306
21.408383
19.302426
15.632893
11.723038
8.6601591
6.4988446
5.0156919
4.0081534
3.2860162
2.7050276
2.268505
1.9776786
1.7774488
1.6364369
1.5351011
1.4603907
1.4041349
1.3610968
1.3277014
1.3014475
1.2805736
1.2638201
1.2502682
1.239235
1.2302028
1.222774
1.2166384
1.2115519
22.570536
22.353842
21.414462
19.31701
15.654817
11.741203
8.6721395
6.5052835
5.0186913
4.0091615
3.2859339
2.7044564
2.2679081
1.9771684
1.7770273
1.6361004
1.5348303
1.4601684
1.4039481
1.3609365
1.3275604
1.3013207
1.2804574
1.2637119
1.250166
1.2391373
1.2301085
1.2226821
1.2165483
1.211463
22.57206
22.356372
21.420524
19.331568
15.676766
11.759424
8.6841697
6.5117492
5.0217039
4.0101759
3.2858541
2.7038868
2.2673131
1.9766599
1.7766073
1.6357653
1.5345604
1.459947
1.403762
1.3607768
1.3274199
1.3011945
1.2803418
1.2636042
1.2500642
1.23904
1.2300145
1.2225906
1.2164586
1.2113745
22.573579
22.358895
21.426566
19.346095
15.69874
11.777699
8.6962498
6.518243
5.0247298
4.0111966
3.2857767
2.7033189
2.2667197
1.976153
1.7761887
1.6354313
1.5342914
1.4597263
1.4035766
1.3606176
1.3272799
1.3010686
1.2802264
1.2634967
1.2499627
1.238943
1.2299208
1.2224994
1.2163691
1.2112862
22.575094
22.361413
21.432591
19.360593
15.720737
11.79603
8.7083804
6.524764
5.0277693
4.0122235
3.285702
2.7027528
2.2661283
1.9756477
1.7757718
1.6350986
1.5340234
1.4595064
1.4033919
1.3604591
1.3271405
1.3009433
1.2801117
1.2633898
1.2498617
1.2388465
1.2298276
1.2224086
1.2162801
1.2111983
22.576604
22.363925
21.438599
19.375064
15.742758
11.814417
8.7205611
6.5313132
5.0308228
4.0132564
3.2856298
2.7021884
2.2655388
1.9751443
1.7753565
1.6347673
1.5337568
1.4592874
1.4032081
1.3603012
1.3270016
1.3008185
1.2799973
1.2632832
1.2497611
1.2387503
1.2297347
1.2223181
1.2161914
1.2111107
22.57811
22.36643
21.444588
19.389505
15.764802
11.832859
8.7327932
6.5378904
5.0338899
4.0142949
3.2855604
2.7016259
2.2649513
1.9746428
1.7749428
1.6344372
1.5334913
1.4590693
1.4030251
1.360144
1.3268634
1.3006943
1.2798835
1.2631772
1.249661
1.2386546
1.2296423
1.2222281
1.2161031
1.2110236
22.579612
22.36893
21.450561
19.403916
15.78687
11.851357
8.745076
6.5444958
5.0369707
4.0153394
3.2854937
2.7010653
2.2643654
1.974143
1.7745308
1.6341084
1.5332271
1.458852
1.4028428
1.3599873
1.3267256
1.3005704
1.27977
1.2630715
1.2495611
1.2385591
1.2295501
1.2221383
1.216015
1.2109367
22.58111
22.371423
21.456517
19.418298
15.808961
11.869911
8.7574105
6.5511299
5.0400658
4.0163902
3.2854298
2.7005065
2.2637815
1.9736453
1.7741204
1.6337812
1.5329641
1.4586356
1.4026613
1.3598314
1.3265885
1.3004472
1.2796571
1.2629663
1.2494618
1.2384642
1.2294585
1.2220491
1.2159274
1.2108503
22.582603
22.373911
21.462458
19.432653
15.831075
11.888522
8.7697965
6.5577924
5.0431753
4.0174473
3.2853687
2.6999496
2.2631996
1.9731494
1.7737117
1.6334553
1.532702
1.4584201
1.4024806
1.3596761
1.3264519
1.3003244
1.2795446
1.2628615
1.2493629
1.2383695
1.2293671
1.2219601
1.2158401
1.2107641
22.584092
22.376392
21.46838
19.446976
15.85321
11.907189
8.7822347
6.5644842
5.0462989
4.0185112
3.2853105
2.6993946
2.2626197
1.9726554
1.7733047
1.6331308
1.532441
1.4582057
1.4023007
1.3595216
1.326316
1.3002023
1.2794327
1.2627573
1.2492644
1.2382754
1.2292763
1.2218716
1.2157533
1.2106784
22.585576
22.378867
21.474284
19.461269
15.875368
11.925914
8.7947252
6.5712047
5.0494368
4.019582
3.2852552
2.6988415
2.2620419
1.9721631
1.7728992
1.6328075
1.532181
1.4579922
1.4021214
1.3593675
1.3261805
1.3000805
1.2793211
1.2626533
1.2491662
1.2381815
1.2291857
1.2217834
1.2156667
1.210593
22.587055
22.381337
21.48017
19.475534
15.897549
11.944696
8.8072683
6.577955
5.0525897
4.0206594
3.2852028
2.6982905
2.2614662
1.9716726
1.7724955
1.6324857
1.531922
1.4577797
1.4019429
1.3592142
1.3260458
1.2999594
1.2792101
1.26255
1.2490686
1.2380882
1.2290956
1.2216956
1.2155806
1.210508
22.588531
22.3838
21.486037
19.489768
15.91975
11.963535
8.8198641
6.5847344
5.0557573
4.0217435
3.2851535
2.6977417
2.2608926
1.971184
1.7720934
1.6321652
1.5316641
1.4575682
1.4017652
1.3590616
1.3259116
1.2998387
1.2790996
1.2624471
1.2489714
1.2379952
1.2290058
1.2216082
1.2154948
1.2104234
22.590001
22.386257
21.491887
19.503971
15.941973
11.982433
8.8325134
6.5915438
5.0589394
4.0228345
3.2851072
2.697195
2.260321
1.9706974
1.7716932
1.6318463
1.5314074
1.4573576
1.4015884
1.3589098
1.3257781
1.2997188
1.2789897
1.2623447
1.2488747
1.2379028
1.2289166
1.2215214
1.2154096
1.2103393
22.591467
22.388707
21.49772
19.518144
15.964217
12.001388
8.8452159
6.5983832
5.0621367
4.023932
3.2850641
2.6966504
2.2597513
1.9702127
1.7712944
1.6315285
1.5311516
1.4571479
1.4014122
1.3587586
1.3256451
1.2995992
1.2788801
1.2622427
1.2487783
1.2378106
1.2288276
1.2214347
1.2153246
1.2102555
22.592928
22.391151
21.503535
19.532288
15.986482
12.020402
8.8579723
6.6052526
5.0653493
4.0250363
3.2850241
2.696108
2.2591837
1.9697301
1.7708974
1.6312122
1.5308974
1.4569392
1.401237
1.3586082
1.3255129
1.2994804
1.2787713
1.2621413
1.2486825
1.2377191
1.2287392
1.2213486
1.2152402
1.2101721
22.594385
22.393588
21.509334
19.546399
16.008767
12.039476
8.8707828
6.6121526
5.0685771
4.0261477
3.2849873
2.6955677
2.2586182
1.9692495
1.7705021
1.6308972
1.5306443
1.4567314
1.4010626
1.3584584
1.3253812
1.299362
1.2786628
1.2620403
1.2485871
1.2376279
1.2286512
1.2212629
1.2151561
1.2100892
22.595837
22.396019
21.515118
19.56048
16.031072
12.058608
8.8836475
6.6190833
5.0718202
4.0272662
3.2849538
2.6950296
2.2580551
1.9687709
1.7701086
1.6305839
1.5303926
1.4565246
1.4008891
1.3583095
1.3252502
1.2992443
1.278555
1.26194
1.2484923
1.2375373
1.2285637
1.2211777
1.2150725
1.2100067
22.597284
22.398443
21.520884
19.574531
16.053398
12.077801
8.8965671
6.6260448
5.0750792
4.0283919
3.2849235
2.6944937
2.2574942
1.9682941
1.7697168
1.630272
1.5301419
1.4563185
1.4007162
1.3581612
1.3251197
1.2991271
1.2784476
1.2618399
1.2483978
1.237447
1.2284764
1.2210927
1.2149892
1.2099245
22.598726
22.400861
21.526632
19.58855
16.075741
12.097054
8.9095416
6.6330374
5.0783539
4.0295251
3.2848966
2.6939601
2.2569357
1.9678193
1.7693269
1.6299615
1.5298924
1.4561135
1.4005444
1.3580136
1.3249901
1.2990105
1.2783408
1.2617405
1.2483039
1.2373573
1.2283898
1.2210083
1.2149065
1.2098429
22.600163
22.403272
21.532362
19.602536
16.098106
12.116367
8.9225711
6.6400616
5.0816443
4.0306657
3.2848732
2.6934288
2.2563793
1.9673464
1.7689388
1.6296523
1.529644
1.4559095
1.4003734
1.3578668
1.324861
1.2988945
1.2782346
1.2616415
1.2482104
1.237268
1.2283035
1.2209243
1.2148241
1.2097616
22.601596
22.405676
21.538074
19.616492
16.120487
12.135741
8.9356566
6.6471171
5.0849508
4.0318138
3.2848532
2.6928999
2.2558252
1.9668756
1.7685525
1.6293448
1.5293969
1.4557067
1.4002034
1.3577208
1.3247327
1.2987793
1.278129
1.2615432
1.2481176
1.2371793
1.2282178
1.2208409
1.2147423
1.2096809
22.603023
22.408074
21.543768
19.630416
16.142888
12.155178
8.9487975
6.6542049
5.0882738
4.0329695
3.2848366
2.6923735
2.2552731
1.9664068
1.7681679
1.6290387
1.5291508
1.4555049
1.4000341
1.3575754
1.3246049
1.2986644
1.2780239
1.2614453
1.2480251
1.2370909
1.2281325
1.2207577
1.2146608
1.2096005
22.604445
22.410465
21.549445
19.644306
16.165306
12.174676
8.9619947
6.6613244
5.0916131
4.0341326
3.2848237
2.6918495
2.2547232
1.9659402
1.7677849
1.6287341
1.5289059
1.4553042
1.3998657
1.3574309
1.3244779
1.2985504
1.2779194
1.261348
1.2479333
1.2370031
1.2280477
1.2206752
1.2145799
1.2095206
22.605863
22.412849
21.555104
19.658164
16.187742
12.194237
8.9752484
6.6684766
5.0949687
4.0353033
3.2848143
2.6913279
2.2541755
1.9654755
1.7674035
1.6284308
1.5286621
1.4551045
1.3996982
1.3572871
1.3243515
1.2984369
1.2778155
1.2612512
1.2478419
1.2369158
1.2279634
1.2205931
1.2144994
1.2094412
22.607275
22.415225
21.560747
19.67199
16.210195
12.213861
8.9885587
6.6756613
5.0983412
4.0364818
3.2848086
2.6908089
2.2536302
1.965013
1.767024
1.6281289
1.5284196
1.4549058
1.3995316
1.3571442
1.3242259
1.2983241
1.2777122
1.2611551
1.2477511
1.2368291
1.2278797
1.2205116
1.2144194
1.2093623
22.608682
22.417594
21.566373
19.685782
16.232664
12.233549
9.0019258
6.682879
5.1017307
4.0376681
3.2848065
2.6902922
2.2530874
1.9645524
1.7666462
1.6278284
1.5281784
1.4547081
1.3993657
1.3570018
1.3241009
1.2982118
1.2776094
1.2610594
1.2476608
1.2367427
1.2277963
1.2204304
1.2143398
1.2092837
22.610084
22.419956
21.571983
19.699541
16.25515
12.253301
9.0153505
6.6901298
5.1051371
4.0388626
3.2848082
2.6897779
2.2525471
1.9640938
1.7662704
1.6275296
1.5279385
1.4545114
1.3992008
1.3568604
1.3239767
1.2981003
1.2775073
1.2609643
1.2475711
1.236657
1.2277136
1.2203499
1.2142608
1.2092058
22.611481
22.42231
21.577577
19.713266
16.27765
12.273119
9.0288325
6.6974142
5.1085607
4.0400652
3.2848136
2.6892662
2.252009
1.9636372
1.7658964
1.6272323
1.5276999
1.4543157
1.3990368
1.3567198
1.3238532
1.2979894
1.2774058
1.2608698
1.2474819
1.2365718
1.2276313
1.2202698
1.2141822
1.2091282
22.612873
22.424657
21.583152
19.726957
16.300167
12.293002
9.0423722
6.7047321
5.112002
4.041276
3.2848229
2.688757
2.2514731
1.9631826
1.7655243
1.6269365
1.5274625
1.4541211
1.3988737
1.35658
1.3237304
1.2978792
1.277305
1.260776
1.2473933
1.2364871
1.2275497
1.2201903
1.2141042
1.2090512
22.61426
22.426996
21.588709
19.740613
16.322696
12.312951
9.0559704
6.7120842
5.1154606
4.042495
3.284836
2.6882503
2.2509394
1.96273
1.7651539
1.626642
1.5272263
1.4539274
1.3987114
1.3564409
1.3236083
1.2977695
1.2772046
1.2606826
1.2473052
1.2364029
1.2274684
1.2201111
1.2140266
1.2089746
22.615641
22.429327
21.594248
19.754234
16.345241
12.332968
9.0696265
6.7194704
5.1189368
4.0437222
3.2848529
2.6877462
2.2504079
1.9622794
1.7647852
1.626349
1.5269913
1.4537347
1.3985501
1.3563027
1.323487
1.2976606
1.2771049
1.2605899
1.2472177
1.2363193
1.2273878
1.2200326
1.2139496
1.2088986
22.617018
22.431651
21.59977
19.767821
16.367798
12.353052
9.0833413
6.7268913
5.1224312
4.0449577
3.2848738
2.6872447
2.2498787
1.9618309
1.764418
1.6260575
1.5267575
1.4535431
1.3983898
1.3561653
1.3233664
1.2975524
1.2770059
1.2604978
1.2471308
1.2362362
1.2273076
1.2199546
1.213873
1.2088231
22.618389
22.433967
21.605274
19.781371
16.390368
12.373205
9.0971154
6.7343469
5.1259437
4.0462015
3.2848987
2.6867458
2.2493518
1.9613844
1.7640525
1.6257676
1.5265249
1.4533526
1.3982304
1.3560288
1.3232465
1.2974449
1.2769076
1.2604063
1.2470445
1.2361538
1.2272281
1.2198772
1.2137971
1.2087482
22.619755
22.436276
21.61076
19.794885
16.41295
12.393428
9.110948
6.7418378
5.1294742
4.0474539
3.2849275
2.6862496
2.2488272
1.9609397
1.7636885
1.6254788
1.5262933
1.4531631
1.3980718
1.3558929
1.3231273
1.2973379
1.2768097
1.2603154
1.2469586
1.2360718
1.227149
1.2198002
1.2137215
1.2086736
22.621116
22.438576
21.61623
19.808362