/*--------------------------------*- C++ -*----------------------------------*\
| =========                 |                                                 |
| \\      /  F ield         | OpenFOAM: The Open Source CFD Toolbox           |
|  \\    /   O peration     | Version:  v2012                                 |
|   \\  /    A nd           | Website:  www.openfoam.com                      |
|    \\/     M anipulation  |                                                 |
\*---------------------------------------------------------------------------*/
FoamFile
{
    version     2.0;
    format      ascii;
    class       volScalarField;
    location    "550";
    object      T;
}
// * * * * * * * * * * * * * * * * * * * * * * * * * * * * * * * * * * * * * //

dimensions      [0 0 0 1 0 0 0];


internalField   nonuniform List<scalar> 
24000
(
42.612044
42.78077
43.584952
46.018057
52.157287
63.070416
79.115559
99.885494
124.56952
151.4019
181.0687
217.79356
259.09583
297.39846
331.65135
361.47687
386.5979
407.48452
424.74486
438.93636
450.57789
460.13606
468.0004
474.48581
479.84497
484.28115
487.95871
491.01118
493.54754
495.65706
42.611182
42.77925
43.580026
45.99975
52.110774
62.996339
79.024344
99.780463
124.46377
151.31285
181.00079
217.73966
259.0537
297.38013
331.65427
361.49049
386.61589
407.50255
424.76017
438.94767
450.58517
460.13971
468.00092
474.48373
479.84082
484.27544
487.95189
491.00364
493.53962
495.64905
42.610301
42.777679
43.574719
45.981015
52.066273
62.929229
78.941075
99.689508
124.38198
151.25836
180.97741
217.73409
259.06187
297.4055
331.69218
361.53156
386.65584
407.53933
424.79269
438.97562
450.60884
460.15965
468.01774
474.49803
479.85315
484.28628
487.96166
491.0127
493.54829
495.65758
42.609417
42.776065
43.569334
45.962503
52.022802
62.863846
78.858926
99.604307
124.309
151.21282
180.96385
217.74446
259.08756
297.4464
331.74336
361.58424
386.70685
407.5877
424.83802
439.01789
450.64832
460.19672
468.0528
474.53146
479.88531
484.31747
487.99214
491.0427
493.57799
495.68714
42.608533
42.774433
43.563934
45.944132
51.979872
62.798593
78.778901
99.52361
124.24264
151.17518
180.96024
217.76979
259.13125
297.50482
331.81061
361.65115
386.77
407.64617
424.89166
439.06699
450.69352
460.23871
468.09219
474.56879
479.92103
484.35197
488.02576
491.07572
493.61064
495.71962
42.607649
42.772793
43.558546
45.92589
51.937327
62.733415
78.700176
99.445555
124.18015
151.14213
180.9626
217.80455
259.18667
297.57515
331.88945
361.72919
386.84385
407.71502
424.95545
439.1261
450.74866
460.29059
468.14146
474.61601
479.96666
484.39641
488.06932
491.11868
493.65323
495.76202
42.606765
42.77115
43.553177
45.907796
51.895016
62.668283
78.622311
99.369137
124.1201
151.11208
180.96894
217.84562
259.24991
297.6533
331.97567
361.81395
386.92365
407.78913
425.02394
439.18953
450.80784
460.34635
468.19452
474.66695
480.01598
484.4445
488.11653
491.16527
493.69943
495.80801
42.605882
42.769508
43.547832
45.889809
51.852924
62.603185
78.544985
99.293739
124.06161
151.08399
180.97791
217.89089
259.31839
297.73674
332.06694
361.90342
387.0078
407.86726
425.09621
439.25654
450.87049
460.4055
468.25091
474.72119
480.06857
484.49586
488.16699
491.2151
493.74886
495.85724
42.605001
42.767868
43.542513
45.871921
51.810989
62.538102
78.468013
99.21897
124.0041
151.05717
180.98865
217.93899
259.39039
297.82369
332.16154
361.99595
387.09471
407.94789
425.17077
439.32571
450.9352
460.46665
468.30926
474.77738
480.1231
484.54915
488.21936
491.26684
493.8002
495.90836
42.604121
42.766232
43.537219
45.854153
51.769191
62.473029
78.391249
99.14459
123.94722
151.03119
181.00058
217.98902
259.46481
297.91306
332.25841
362.09056
387.18352
408.03025
425.24695
439.39639
451.00136
460.52921
468.36901
474.83495
480.179
484.60379
488.27309
491.31994
493.85289
495.96083
42.603243
42.764603
43.531949
45.836464
51.727531
62.407965
78.314615
99.070433
123.89073
151.00577
181.01333
218.0404
259.54089
298.00406
332.3568
362.18658
387.27359
408.11376
425.32418
439.46806
451.06847
460.59269
468.42966
474.8934
480.23578
484.65931
488.3277
491.37391
493.90645
496.01417
42.602366
42.762979
43.526716
45.818864
51.685964
62.342903
78.238036
98.996383
123.83448
150.98071
181.02664
218.09274
259.61815
298.09622
332.45625
362.28355
387.36453
408.19806
425.40213
439.54042
451.13623
460.65682
468.49094
474.95248
480.29318
484.71545
488.38292
491.42849
493.96062
496.06811
42.601491
42.76136
43.521512
45.801367
51.644525
62.277847
78.161478
98.922371
123.77836
150.95588
181.04036
218.14577
259.69623
298.18918
332.55641
362.38116
387.45605
408.28288
425.48057
439.61323
451.20443
460.72136
468.55263
475.01196
480.35097
484.77199
488.43853
491.48346
494.01518
496.12245
42.600617
42.759745
43.51633
45.783935
51.603164
62.212788
78.084901
98.848333
123.72227
150.93118
181.05434
218.19929
259.77491
298.2827
332.65706
362.47921
387.54795
408.36805
425.55932
439.68634
451.27292
460.78618
468.61459
475.07173
480.40905
484.8288
488.49443
491.53872
494.07002
496.17706
42.599745
42.758134
43.511169
45.766591
51.56191
62.147728
78.008286
98.774233
123.66618
150.90655
181.06852
218.25318
259.85403
298.37661
332.75804
362.57753
387.64008
408.45341
425.63825
439.75961
451.34156
460.85116
468.67672
475.13164
480.46728
484.88577
488.55048
491.59412
494.12501
496.23183
42.598875
42.756527
43.506029
45.749335
51.520742
62.082675
77.931612
98.700044
123.61004
150.88194
181.08282
218.30733
259.93346
298.47078
332.85921
362.676
387.73234
408.5389
425.71729
439.83299
451.41031
460.91625
468.73894
475.19166
480.52562
484.94284
488.60663
491.64963
494.18011
496.2867
42.598008
42.754925
43.500908
45.732138
51.479654
62.017617
77.854868
98.625736
123.55381
150.85732
181.0972
218.36168
260.01311
298.56512
332.9605
362.77455
387.82467
408.62443
425.79637
439.9064
451.47909
460.98136
468.8012
475.25171
480.58399
484.99995
488.66282
491.70518
494.23524
496.34161
42.597142
42.753326
43.495808
45.715032
51.438669
61.952564
77.778042
98.5513
123.49748
150.83265
181.11163
218.41616
260.09291
298.65958
333.06184
362.87313
387.917
408.70997
425.87545
439.97982
451.54788
461.04649
468.86348
475.31178
480.64238
485.05708
488.71903
491.76075
494.2904
496.39654
42.596278
42.751731
43.49073
45.698004
51.397749
61.887509
77.701126
98.476721
123.44102
150.80792
181.12608
218.47073
260.17281
298.75408
333.16316
362.97166
388.00928
408.79544
425.95447
440.05317
451.6166
461.11156
468.9257
475.3718
480.70072
485.11417
488.77519
491.81628
494.34551
496.45142
42.595415
42.750141
43.485684
45.681032
51.356933
61.822457
77.624115
98.401984
123.38443
150.78312
181.14053
218.52538
260.25276
298.84859
333.26443
363.07013
388.10148
408.88083
426.03341
440.12646
451.68527
461.17658
468.98787
475.43178
480.75902
485.17121
488.83132
491.87176
494.40058
496.50627
42.594554
42.748554
43.480661
45.664153
51.316184
61.757418
77.547
98.327089
123.3277
150.75822
181.15496
218.58006
260.33275
298.94308
333.36563
363.16848
388.19357
408.96611
426.11224
440.19965
451.75385
461.2415
469.04995
475.49166
480.81723
485.22816
488.88736
491.92716
494.45557
496.56104
42.593695
42.746971
43.475656
45.647344
51.275529
61.692373
77.469784
98.252022
123.27081
150.73322
181.16936
218.63478
260.41275
299.03753
333.46674
363.26673
388.28555
409.05129
426.19098
440.27275
451.82234
461.30635
469.11196
475.55148
480.87538
485.28506
488.94334
491.98251
494.51051
496.61575
42.592838
42.745391
43.47067
45.630591
51.234956
61.627339
77.392453
98.17678
123.21376
150.70811
181.18372
218.6895
260.49275
299.13192
333.56773
363.36484
388.37739
409.13632
426.26958
440.34571
451.8907
461.37107
469.17385
475.61119
480.93342
485.34185
488.99922
492.03775
494.56534
496.67035
42.591982
42.743816
43.465703
45.613932
51.194459
61.562315
77.315015
98.101363
123.15654
150.68289
181.19803
218.74423
260.57274
299.22624
333.66859
363.46279
388.46907
409.22122
426.34804
440.41855
451.95895
461.4357
469.23564
475.6708
480.99137
485.39855
489.05501
492.09291
494.62009
496.72487
42.591129
42.742245
43.460754
45.597339
51.154059
61.497293
77.237456
98.025757
123.09916
150.65754
181.21228
218.79894
260.65269
299.32046
333.76931
363.56058
388.56058
409.30594
426.42635
440.49124
452.02706
461.50018
469.29731
475.73029
481.04919
485.45512
489.11068
492.14794
494.67471
496.77928
42.590277
42.740677
43.455823
45.5808
51.113726
61.432289
77.159785
97.949969
123.0416
150.63207
181.22647
218.85364
260.73261
299.41461
333.86988
363.65822
388.65195
409.39052
426.50452
440.5638
452.09505
461.56456
469.35887
475.78968
481.10692
485.51162
489.16626
492.2029
494.72926
496.8336
42.589426
42.739115
43.450913
45.564357
51.073493
61.367291
77.081989
97.873993
122.98386
150.60647
181.2406
218.90831
260.81247
299.50865
333.97029
363.75567
388.74312
409.47491
426.5825
440.63619
452.16287
461.62878
469.42028
475.84892
481.16451
485.56796
489.22171
492.25771
494.78367
496.88779
42.588578
42.737558
43.446034
45.547977
51.033332
61.302304
77.004077
97.797823
122.92594
150.58074
181.25466
218.96295
260.89229
299.60257
334.07053
363.85293
388.83411
409.55913
426.66033
440.70843
452.23056
461.69287
469.48157
475.90805
481.22198
485.6242
489.27704
492.31241
494.83797
496.94186
42.587731
42.736004
43.441176
45.531649
50.993263
61.237344
76.926036
97.721465
122.86785
150.55487
181.26864
219.01756
260.97204
299.69638
334.1706
363.94998
388.92489
409.64315
426.73797
440.7805
452.29808
461.7568
469.5427
475.96702
481.27931
485.68029
489.33223
492.36698
494.89213
496.9958
42.586887
42.734454
43.436336
45.515418
50.95328
61.172387
76.847876
97.644907
122.80957
150.52887
181.28256
219.07214
261.05175
299.79007
334.27049
364.04686
389.01551
409.72701
426.81546
440.85243
452.36548
461.82062
469.60373
476.02589
481.33654
485.73629
489.38733
492.42145
494.94619
497.04965
42.586044
42.732908
43.431514
45.499247
50.913376
61.107454
76.769582
97.568156
122.75111
150.50272
181.29639
219.12669
261.13139
299.88363
334.3702
364.14353
389.1059
409.81066
426.89275
440.92417
452.4327
461.88426
469.66459
476.0846
481.39361
485.79213
489.44227
492.47577
495.00011
497.10334
42.585203
42.731366
43.42671
45.483129
50.873568
61.042545
76.691165
97.491207
122.69244
150.47644
181.31014
219.1812
261.21097
299.97706
334.46973
364.24
389.19611
409.89413
426.96988
440.99576
452.49977
461.94777
469.72532
476.14319
481.45056
485.84786
489.49711
492.52998
495.05392
497.15694
42.584366
42.729827
43.421923
45.467106
50.833833
60.977647
76.612615
97.414057
122.6336
150.45
181.3238
219.23567
261.29047
300.07036
334.56905
364.33625
389.2861
409.9774
427.04681
441.06717
452.56668
462.01112
469.7859
476.20163
481.50737
485.90344
489.5518
492.58405
495.10759
497.21038
42.583531
42.728295
43.417153
45.451143
50.794199
60.912782
76.533933
97.336711
122.57458
150.42342
181.33738
219.29009
261.3699
300.16355
334.6682
364.4323
389.3759
410.06049
427.12358
441.13843
452.63345
462.07434
469.84636
476.25996
481.56407
485.95893
489.6064
492.63803
495.16117
497.26374
42.582698
42.726768
43.412402
45.435232
50.754641
60.84794
76.455119
97.25916
122.51536
150.39669
181.35087
219.34447
261.44926
300.25659
334.76715
364.52813
389.46547
410.14335
427.20013
441.20948
452.70002
462.13738
469.90664
476.31811
481.62061
486.01424
489.66083
492.69184
495.21458
497.31693
42.581868
42.725244
43.407682
45.419414
50.715176
60.783118
76.376167
97.181408
122.45594
150.36981
181.36426
219.3988
261.52855
300.34948
334.86589
364.62374
389.55483
410.22601
427.2765
441.28036
452.76644
462.20027
469.96678
476.37614
481.67701
486.06944
489.71514
492.74553
495.26787
497.37001
42.581039
42.723725
43.402983
45.403656
50.675803
60.718338
76.297081
97.103454
122.39633
150.34277
181.37756
219.45307
261.60776
300.44222
334.96442
364.71911
389.64396
410.30845
427.35264
441.35104
452.83266
462.26297
470.02675
476.43398
481.73324
486.12446
489.76928
492.79905
495.321
497.42292
42.580213
42.72221
43.398301
45.387949
50.636512
60.653579
76.217851
97.025293
122.33654
150.31556
181.39076
219.50731
261.68689
300.53482
335.06276
364.81428
389.73288
410.3907
427.42863
441.42157
452.89875
462.32556
470.08659
476.49172
481.78938
486.17939
489.82332
492.85249
495.37404
497.47574
42.579389
42.720698
43.393637
45.372333
50.597316
60.588852
76.138484
96.94693
122.27655
150.28821
181.40385
219.56149
261.76595
300.62727
335.16087
364.90921
389.82157
410.47272
427.50439
441.49189
452.96463
462.38794
470.14625
476.54928
481.84533
486.23413
489.87719
492.90574
495.4269
497.52839
42.578567
42.71919
43.388989
45.356778
50.5582
60.524174
76.058968
96.868357
122.21636
150.26069
181.41684
219.61562
261.84492
300.71958
335.25878
365.00391
389.91004
410.55454
427.57997
441.56203
453.03036
462.45018
470.20578
476.60671
481.90115
486.28876
489.93095
492.95889
495.47965
497.58092
42.577747
42.717686
43.384359
45.341274
50.519184
60.459519
75.979312
96.78958
122.15597
150.23301
181.42973
219.66968
261.92379
300.81172
335.35646
365.09837
389.99827
410.63612
427.65532
441.63197
453.09589
462.51223
470.26512
476.66395
481.9568
486.34321
489.98453
493.01186
495.53223
497.63329
42.576929
42.716187
43.379746
45.325855
50.48025
60.394909
75.899505
96.710598
122.0954
150.20517
181.4425
219.72369
262.00259
300.90372
335.45394
365.1926
390.08628
410.71751
427.7305
441.70175
453.16128
462.57416
470.32434
476.7211
482.01236
486.39758
490.03802
493.06475
495.58473
497.68557
42.576114
42.71469
43.37515
45.310501
50.441413
60.330348
75.819552
96.631407
122.03463
150.17716
181.45516
219.77763
262.08129
300.99554
335.55117
365.28657
390.17403
410.79865
427.80544
441.77131
453.22646
462.63587
470.38337
476.77804
482.06772
486.45175
490.09132
493.11745
495.63704
497.73767
42.575301
42.713198
43.370577
45.295197
50.402667
60.265818
75.739448
96.552012
121.97366
150.149
181.4677
219.8315
262.15989
301.08719
335.64818
365.3803
390.26155
410.87957
427.88018
441.84068
453.29146
462.69743
470.44224
476.83485
482.12295
486.50579
490.1445
493.17002
495.68922
497.78964
42.57449
42.71171
43.366031
45.279972
50.364009
60.201347
75.659189
96.472406
121.91249
150.12065
181.48012
219.8853
262.2384
301.17866
335.74494
365.47376
390.3488
410.96023
427.95467
441.90982
453.35625
462.75878
470.50092
476.89145
482.17798
486.55964
490.19749
493.22241
495.74122
497.84143
42.573681
42.710226
43.361503
45.264817
50.325446
60.136925
75.578775
96.392595
121.85113
150.09214
181.49242
219.93903
262.31682
301.26996
335.84147
365.56699
390.43583
411.04069
428.02898
441.9788
453.42089
462.82001
470.55948
476.94796
482.23291
486.61339
490.25039
493.27471
495.79314
497.89313
42.572875
42.708745
43.356991
45.249711
50.286969
60.072543
75.4982
96.312575
121.78957
150.06346
181.50459
219.99269
262.39512
301.36109
335.93776
365.65995
390.5226
411.12089
428.10305
442.04754
453.48531
462.88101
470.61782
477.00425
482.28764
486.66695
490.30309
493.32681
495.84486
497.94464
42.572072
42.707269
43.352496
45.234677
50.24859
60.00823
75.417468
96.232347
121.72781
150.03459
181.51664
220.04628
262.47333
301.45205
336.03382
365.75266
390.60913
411.20088
428.17692
442.11611
453.54957
462.94187
470.67603
477.06041
482.34224
486.72039
490.35567
493.3788
495.89646
497.99603
42.571271
42.705796
43.348018
45.219718
50.210298
59.94397
75.336568
96.151913
121.66584
150.00555
181.52857
220.0998
262.55145
301.54283
336.12963
365.84511
390.6954
411.28061
428.25055
442.18444
453.61361
463.00251
470.73403
477.11638
482.39665
486.77363
490.40806
493.4306
495.94788
498.04724
42.570472
42.704329
43.343556
45.204808
50.172107
59.87976
75.255506
96.071269
121.60368
149.97634
181.54036
220.15323
262.62946
301.63343
336.2252
365.93731
390.78143
411.36014
428.32399
442.25262
453.6775
463.06303
470.79192
477.17224
482.45096
486.82678
490.46037
493.48231
495.99921
498.09836
42.569676
42.702866
43.33911
45.189961
50.134004
59.815631
75.174277
95.990423
121.54133
149.94695
181.55202
220.20659
262.70736
301.72383
336.32051
366.02922
390.86718
411.43938
428.39717
442.32054
453.74116
463.12332
470.84959
477.22788
482.50506
486.87972
490.51246
493.53382
496.05033
498.14928
42.568882
42.701408
43.334681
45.175196
50.095997
59.751559
75.092876
95.909368
121.47877
149.91739
181.56354
220.25985
262.78515
301.81403
336.41556
366.12086
390.95267
411.51839
428.47012
442.38826
453.80463
463.18343
470.90709
477.28337
482.55901
486.93252
490.56442
493.58519
496.10133
498.20007
42.568091
42.699953
43.330279
45.160479
50.058081
59.687546
75.011303
95.82811
121.416
149.88765
181.57492
220.31301
262.86281
301.90402
336.51032
366.2122
391.03786
411.59711
428.54282
442.45574
453.86786
463.24333
470.96438
477.33865
482.61276
486.98512
490.61618
493.63636
496.15213
498.25066
42.567302
42.698503
43.325899
45.145816
50.020257
59.623627
74.929551
95.746649
121.35304
149.85773
181.58615
220.36608
262.94034
301.99381
336.60483
366.30328
391.12282
411.67562
428.61532
442.52304
453.93094
463.30308
471.02154
477.39381
482.66639
487.03761
490.66784
493.68744
496.20282
498.30115
42.566517
42.697056
43.321535
45.131241
49.982528
59.559769
74.847623
95.664982
121.28989
149.82763
181.59724
220.41906
263.01775
302.08339
336.69907
366.39407
391.20748
411.75385
428.68755
442.59009
453.99378
463.3626
471.07848
477.44876
482.71982
487.08989
490.71929
493.73831
496.25332
498.35144
42.565733
42.695614
43.317187
45.116714
49.94489
59.495985
74.765511
95.583115
121.22652
149.79734
181.60819
220.47194
263.09505
302.17277
336.79304
366.48459
391.29189
411.83184
428.75957
442.65694
454.05644
463.42196
471.13526
477.50355
482.7731
487.14204
490.7706
493.78905
496.30369
498.4016
42.564953
42.694175
43.312855
45.102237
49.907355
59.4323
74.683217
95.501043
121.16294
149.76687
181.619
220.52474
263.17222
302.26193
336.88673
366.57481
391.37602
411.90956
428.83133
442.72355
454.11888
463.4811
471.19183
477.55814
482.82618
487.19398
490.82173
493.83959
496.35386
498.45157
42.564175
42.692741
43.308539
45.087844
49.869904
59.368686
74.600735
95.418774
121.09917
149.7362
181.62966
220.57743
263.24927
302.35089
336.98017
366.66478
391.4599
411.98706
428.9029
442.78999
454.18115
463.54009
471.24828
477.61261
482.87915
487.24582
490.87274
493.89004
496.40393
498.50144
42.563401
42.691314
43.304239
45.073505
49.832554
59.305161
74.518063
95.336305
121.03519
149.70535
181.64018
220.63002
263.32618
302.43962
337.07332
366.75443
391.54347
412.06427
428.97418
442.85616
454.24318
463.59885
471.30449
477.66686
482.93189
487.29745
490.92355
493.94027
496.45379
498.5511
42.562629
42.689891
43.299955
45.059212
49.795289
59.24174
74.435198
95.253641
120.971
149.67432
181.65055
220.6825
263.40295
302.52812
337.16618
366.84379
391.62677
412.14121
429.04523
442.92212
454.30501
463.65742
471.36052
477.72094
482.98448
487.34891
490.9742
493.99035
496.50351
498.60061
42.561861
42.688472
43.295687
45.044995
49.758122
59.178402
74.352137
95.170784
120.9066
149.64311
181.66078
220.73486
263.47955
302.61637
337.25873
366.93283
391.70976
412.21787
429.11601
442.98782
454.36659
463.71575
471.41633
477.7748
483.03685
487.40017
491.02464
494.04023
496.55302
498.64992
42.561095
42.687057
43.291445
45.030841
49.721045
59.115169
74.268883
95.087733
120.84199
149.6117
181.67086
220.78711
263.556
302.70439
337.35099
367.02159
391.79248
412.29429
429.18657
443.05332
454.42799
463.77393
471.47199
477.82852
483.0891
487.4513
491.07497
494.08998
496.60241
498.69911
42.560332
42.685646
43.287224
45.016732
49.684059
59.052048
74.185425
95.004494
120.77718
149.58011
181.6808
220.83924
263.63228
302.79216
337.44296
367.11004
391.8749
412.37041
429.25685
443.11857
454.48916
463.83187
471.52743
477.88202
483.14112
487.50222
491.12508
494.13953
496.65159
498.7481
42.559572
42.68424
43.283018
45.002684
49.647173
58.989021
74.101764
94.921063
120.71213
149.54833
181.6906
220.89126
263.70839
302.87969
337.53464
367.1982
391.95705
412.44629
429.32691
443.18361
454.55013
463.88964
471.5827
477.93536
483.19299
487.55299
491.17504
494.18894
496.70064
498.79694
42.558814
42.682837
43.278828
44.988712
49.610367
58.926066
74.017979
94.83745
120.64688
149.51635
181.70027
220.94318
263.78433
302.96697
337.62603
367.28605
392.03891
412.52189
429.39671
443.2484
454.61086
463.94717
471.63775
477.98849
483.24466
487.60356
491.22481
494.23815
496.74948
498.84559
42.55806
42.681439
43.274653
44.974783
49.573664
58.863157
73.934102
94.753649
120.58141
149.48418
181.70981
220.99499
263.86011
303.05403
337.71715
367.37364
392.12052
412.59726
429.4663
443.313
454.67143
464.00456
471.69266
478.04149
483.2962
487.65401
491.27446
494.28724
496.79821
498.89413
42.557308
42.680045
43.270494
44.960907
49.537041
58.80028
73.85014
94.669665
120.51572
149.45181
181.71921
221.04667
263.93571
303.14084
337.80797
367.46092
392.20182
412.67234
429.5356
443.37734
454.73174
464.0617
471.74732
478.09425
483.34751
487.70423
491.32388
494.33611
496.84673
498.94244
42.556559
42.678655
43.266349
44.947107
49.500519
58.73746
73.766085
94.585492
120.4498
149.41924
181.72847
221.09824
264.01111
303.2274
337.8985
367.54789
392.28283
412.74715
429.60467
443.44145
454.79184
464.11864
471.80181
478.14684
483.39865
487.75428
491.37314
494.38482
496.89508
498.9906
42.555813
42.677269
43.26222
44.933357
49.464081
58.674687
73.681942
94.501134
120.38366
149.38647
181.73759
221.14968
264.08632
303.3137
337.9887
367.63454
392.36353
412.82165
429.67344
443.50529
454.85168
464.17533
471.85605
478.19919
483.44955
487.80411
491.42218
494.4333
496.94321
499.03854
42.55507
42.675888
43.258106
44.919653
49.427739
58.611949
73.597708
94.416588
120.3173
149.3535
181.74656
221.20099
264.16134
303.39975
338.07862
367.7209
392.44395
412.89591
429.74198
443.56892
454.91134
464.23185
471.91013
478.25139
483.50032
487.8538
491.47108
494.48166
496.99121
499.08634
42.55433
42.67451
43.254014
44.906018
49.391494
58.549273
73.513386
94.331852
120.25071
149.32032
181.75539
221.25217
264.23616
303.48553
338.16822
367.80693
392.52405
412.96986
429.81024
443.63228
454.97072
464.28812
471.96396
478.30335
483.55084
487.90325
491.51976
494.52978
497.03899
499.13392
42.553593
42.673138
43.249946
44.892444
49.355329
58.486647
73.428978
94.246928
120.18389
149.28694
181.76407
221.30323
264.31079
303.57106
338.25752
367.89266
392.60388
413.04354
429.87825
443.69541
455.02991
464.34419
472.01761
478.35513
483.6012
487.95254
491.56827
494.57775
497.0866
499.18135
42.552859
42.671769
43.245893
44.878912
49.319273
58.424057
73.344479
94.161812
120.11684
149.25336
181.7726
221.35416
264.38523
303.65632
338.34652
367.97808
392.68339
413.11693
429.94598
443.75828
455.08883
464.40001
472.07102
478.40668
483.65133
488.0016
491.61655
494.62549
497.13399
499.22854
42.552128
42.670405
43.241855
44.865437
49.283292
58.361536
73.259891
94.076504
120.04956
149.21956
181.78099
221.40497
264.45949
303.74135
338.43524
368.06321
392.76264
413.19008
430.0135
443.82094
455.14758
464.45567
472.12428
478.45808
483.70132
488.05053
491.6647
494.6731
497.18126
499.27562
42.5514
42.669046
43.237832
44.852034
49.247419
58.299065
73.175218
93.991002
119.98204
149.18555
181.78922
221.45564
264.53354
303.82612
338.52366
368.14803
392.84157
413.26293
430.08071
443.88332
455.20605
464.51106
472.17727
478.50923
483.75105
488.09921
491.71261
494.72048
497.22828
499.32245
42.550675
42.667693
43.233824
44.838674
49.211625
58.236635
73.090454
93.905307
119.91429
149.15132
181.79729
221.50618
264.60739
303.91064
338.61177
368.23254
392.92022
413.3355
430.14768
443.94547
455.2643
464.56624
472.23007
478.56018
483.80061
488.14771
491.76035
494.76768
497.27514
499.36912
42.549953
42.666344
43.22983
44.825363
49.175932
58.174276
73.005604
93.819415
119.84629
149.11686
181.80521
221.55658
264.68105
303.9949
338.69957
368.31673
392.99854
413.40776
430.21434
444.00733
455.32227
464.62116
472.28261
478.61089
483.84991
488.19596
491.80784
494.81463
497.32175
499.41554
42.549234
42.665
43.225852
44.812119
49.140331
58.111972
72.920665
93.733328
119.77806
149.08219
181.81297
221.60685
264.75451
304.0789
338.78707
368.40063
393.07659
413.47976
430.28078
444.06898
455.38006
464.6759
472.33498
478.66143
483.89906
488.24407
491.85518
494.86145
497.36822
499.46182
42.548519
42.663661
43.221888
44.798928
49.104812
58.049712
72.835639
93.647044
119.70958
149.0473
181.82057
221.65698
264.82777
304.16264
338.87427
368.48419
393.15431
413.55145
430.3469
444.13034
455.43756
464.73036
472.38708
478.71171
483.94795
488.29192
491.90227
494.90801
497.41444
499.50786
42.547808
42.662326
43.21794
44.785778
49.069405
57.987527
72.75053
93.560561
119.64085
149.01218
181.82801
221.70697
264.90083
304.24612
338.96116
368.56746
393.23174
413.62286
430.41277
444.19145
455.49483
464.78461
472.43898
478.7618
483.99665
488.33959
491.94918
494.95439
497.46048
499.55371
42.5471
42.660996
43.214017
44.772689
49.034069
57.9254
72.665329
93.473879
119.57189
148.97683
181.83528
221.75682
264.9737
304.32933
339.04775
368.6504
393.30885
413.69397
430.47834
444.25228
455.55182
464.83859
472.49061
478.81162
484.0451
488.387
491.99584
495.00052
497.50628
499.59932
42.546395
42.65967
43.210113
44.759664
48.998847
57.863321
72.580042
93.386995
119.50266
148.94126
181.84239
221.80653
265.04637
304.41232
339.13407
368.73307
393.38571
413.76483
430.54369
444.3129
455.60863
464.8924
472.54209
478.86129
484.0934
488.43427
492.04236
495.04652
497.55193
499.64479
42.545693
42.65835
43.206223
44.74668
48.963697
57.80132
72.494673
93.299909
119.43318
148.90545
181.84933
221.8561
265.11884
304.49504
339.22008
368.81541
393.46224
413.83538
430.60874
444.37323
455.66515
464.94592
472.59328
478.91069
484.14143
488.48127
492.08862
495.09225
497.59733
499.69
42.544994
42.657034
43.202347
44.733747
48.928654
57.739381
72.409213
93.212618
119.36345
148.8694
181.8561
221.90553
265.19111
304.57751
339.30579
368.89746
393.53848
413.90565
430.67352
444.43331
455.72144
464.99922
472.64426
478.95988
484.18926
488.52807
492.13468
495.13779
497.64254
499.73503
42.544298
42.655724
43.198487
44.720874
48.893696
57.677494
72.32367
93.125123
119.29345
148.83311
181.86269
221.95482
265.26318
304.65973
339.39119
368.97918
393.61439
413.9756
430.73799
444.4931
455.77743
465.05224
472.69496
479.0088
484.23681
488.57461
492.18047
495.18307
497.68748
499.77978
42.543605
42.654421
43.194641
44.708053
48.858827
57.615688
72.238042
93.03742
119.22319
148.79658
181.86911
222.00396
265.33506
304.7417
339.47632
369.06062
393.69004
414.0453
430.80223
444.55266
455.83323
465.10507
472.74548
479.05754
484.2842
488.62099
492.22611
495.22819
497.73226
499.82439
42.542915
42.653123
43.190809
44.695273
48.824061
57.553948
72.152325
92.94951
119.15267
148.7598
181.87535
222.05295
265.40674
304.82342
339.56114
369.14173
393.76536
414.11468
430.86615
444.61192
455.88872
465.1576
472.79572
479.10601
484.33131
488.66709
492.27147
495.27304
497.77678
499.86873
42.542228
42.65183
43.186992
44.682548
48.789366
57.492265
72.066527
92.861392
119.08189
148.72277
181.88142
222.1018
265.47824
304.9049
339.64567
369.22255
393.84039
414.18378
430.92981
444.67093
455.94398
465.20991
472.84573
479.15426
484.37822
488.71298
492.31663
495.31768
497.8211
499.91287
42.541544
42.650542
43.18319
44.669887
48.75479
57.430664
71.980641
92.773063
119.01083
148.6855
181.8873
222.1505
265.54954
304.98612
339.72992
369.30306
393.91511
414.25257
430.99317
444.72964
455.99894
465.26193
472.89547
479.20223
484.42484
488.7586
492.36152
495.36206
497.86515
499.95674
42.540864
42.649259
43.179404
44.657266
48.720278
57.369137
71.894669
92.684523
118.93949
148.64798
181.893
222.19906
265.62066
305.06713
339.8139
369.3833
393.98957
414.32111
431.05629
444.78813
456.05371
465.31376
472.94502
479.25002
484.4713
488.80406
492.40624
495.40628
497.90904
500.00045
42.540186
42.647981
43.175642
44.644693
48.685881
57.307671
71.808619
92.59577
118.86789
148.6102
181.89852
222.24748
265.69158
305.1479
339.8976
369.46324
394.06371
414.38934
431.11911
444.84633
456.10817
465.3653
472.99428
479.29753
484.51747
488.84923
492.45068
495.45021
497.95265
500.04388
42.539512
42.646709
43.171898
44.632176
48.651559
57.246288
71.722479
92.506803
118.79601
148.57216
181.90386
222.29575
265.76232
305.22844
339.98102
369.54289
394.13758
414.4573
431.18166
444.90427
456.1624
465.4166
473.04332
479.34482
484.56343
488.89419
492.49492
495.49394
497.99605
500.08711
42.53884
42.645441
43.168168
44.619712
48.617333
57.184987
71.636254
92.41762
118.72383
148.53386
181.90901
222.34388
265.83288
305.30875
340.06417
369.62224
394.21114
414.52496
431.24392
444.96192
456.21633
465.46762
473.09207
479.39183
484.60911
488.93888
492.53888
495.5374
498.03919
500.13006
42.538172
42.644179
43.164453
44.607288
48.583199
57.123751
71.549954
92.328219
118.65138
148.49528
181.91397
222.39186
265.90326
305.38884
340.14705
369.70133
394.28445
414.59237
431.30594
445.01934
456.27006
465.51844
473.14063
479.43865
484.6546
488.98338
492.58266
495.58068
498.08214
500.17284
42.537507
42.642923
43.160753
44.594917
48.549144
57.062599
71.463562
92.238602
118.57864
148.45644
181.91874
222.4397
265.97347
305.46871
340.22967
369.78013
394.35745
414.65947
431.36765
445.07647
456.32348
465.56896
473.18889
479.48517
484.69981
489.02759
492.62616
495.62367
498.12482
500.21534
42.536845
42.641672
43.157067
44.582603
48.515198
57.001537
71.377088
92.148764
118.50561
148.41734
181.92333
222.4874
266.04351
305.54836
340.31203
369.85866
394.43018
414.72631
431.42911
445.13334
456.37666
465.61925
473.23693
479.53148
484.74479
489.07159
492.66944
495.66645
498.16728
500.25763
42.536185
42.640426
43.153396
44.570332
48.481314
56.940546
71.290539
92.058707
118.43228
148.37796
181.92772
222.53496
266.11338
305.62781
340.39414
369.9369
394.50262
414.79285
431.49027
445.18992
456.42956
465.66925
473.28469
479.5775
484.7895
489.11532
492.71244
495.70896
498.20946
500.29964
42.535529
42.639187
43.149739
44.558107
48.447551
56.879642
71.203899
91.968429
118.35867
148.33832
181.93192
222.58238
266.1831
305.70707
340.47603
370.01491
394.57482
414.85916
431.5512
445.24628
456.48225
465.71905
473.33224
479.62333
484.83402
489.15885
492.75526
495.75128
498.25147
500.34147
42.534876
42.637953
43.146097
44.545932
48.413852
56.818833