/*--------------------------------*- C++ -*----------------------------------*\
| =========                 |                                                 |
| \\      /  F ield         | OpenFOAM: The Open Source CFD Toolbox           |
|  \\    /   O peration     | Version:  v2012                                 |
|   \\  /    A nd           | Website:  www.openfoam.com                      |
|    \\/     M anipulation  |                                                 |
\*---------------------------------------------------------------------------*/
FoamFile
{
    version     2.0;
    format      ascii;
    class       volVectorField;
    location    "550";
    object      U;
}
// * * * * * * * * * * * * * * * * * * * * * * * * * * * * * * * * * * * * * //

dimensions      [0 1 -1 0 0 0 0];


internalField   nonuniform List<vector> 
24000
(
(28.413907 -0.0055669407 0)
(28.564008 -0.016345282 0)
(28.885307 -0.021827052 0)
(29.374803 -0.026060129 0)
(30.338519 -0.023654287 0)
(31.875415 -0.0174123 0)
(33.781286 -0.011721908 0)
(35.808101 -0.0066582168 0)
(37.712177 -0.002988077 0)
(39.18605 -0.00013303612 0)
(40.058113 0.0018845728 0)
(40.098958 0.0030784824 0)
(38.813229 0.0028811086 0)
(36.312198 0.0030399943 0)
(32.92667 0.0020102562 0)
(29.041305 0.0016270446 0)
(25.076477 0.0012362627 0)
(21.285698 0.00073060035 0)
(17.808581 0.00028257753 0)
(14.716964 3.340422e-05 0)
(12.02552 -0.00010632831 0)
(9.710922 -0.00016622181 0)
(7.7350569 -0.00016785233 0)
(6.0567183 -0.00014009908 0)
(4.636332 -0.00010262976 0)
(3.4376923 -6.6184487e-05 0)
(2.4284999 -3.6846225e-05 0)
(1.5803923 -1.6439709e-05 0)
(0.86874175 -4.8996707e-06 0)
(0.27234381 -7.5886331e-08 0)
(28.403121 -0.006152341 0)
(28.554109 -0.01886712 0)
(28.878132 -0.027747126 0)
(29.371642 -0.031927229 0)
(30.334725 -0.02218772 0)
(31.867253 -0.0076916093 0)
(33.768467 0.0024279426 0)
(35.789593 0.0099586047 0)
(37.689143 0.014575108 0)
(39.160423 0.016151474 0)
(40.031283 0.014838645 0)
(40.072113 0.012651615 0)
(38.788138 0.010163983 0)
(36.289162 0.0081017595 0)
(32.905635 0.0057976107 0)
(29.02304 0.0039110793 0)
(25.061059 0.0024982544 0)
(21.273164 0.0015050597 0)
(17.799125 0.0008462709 0)
(14.710752 0.00043486013 0)
(12.022446 0.00019403583 0)
(9.7106431 6.395628e-05 0)
(7.7369955 2.2090932e-06 0)
(6.060132 -2.036265e-05 0)
(4.6404374 -2.3058662e-05 0)
(3.4417871 -1.7508436e-05 0)
(2.4320408 -1.0455881e-05 0)
(1.5830277 -4.8592008e-06 0)
(0.87031141 -1.4776418e-06 0)
(0.27285793 -5.9873175e-08 0)
(28.393177 -0.0064635863 0)
(28.543402 -0.0198564 0)
(28.864788 -0.029218729 0)
(29.352084 -0.032594723 0)
(30.308036 -0.020963967 0)
(31.836862 -0.0051498045 0)
(33.736089 0.0059684593 0)
(35.756253 0.014428678 0)
(37.656679 0.019184915 0)
(39.13019 0.02052593 0)
(40.002736 0.018860167 0)
(40.044659 0.015838359 0)
(38.762474 0.012814687 0)
(36.265505 0.0099641543 0)
(32.884159 0.0071349477 0)
(29.004711 0.0048791171 0)
(25.046202 0.0032378983 0)
(21.261516 0.0021075553 0)
(17.790062 0.0013607761 0)
(14.703476 0.00087964098 0)
(12.016223 0.0005713695 0)
(9.7049927 0.00037108225 0)
(7.7317174 0.0002383711 0)
(6.0552366 0.00014926111 0)
(4.6360537 8.9464474e-05 0)
(3.4380724 5.0019756e-05 0)
(2.4291215 2.5113437e-05 0)
(1.5809718 1.0413837e-05 0)
(0.86912043 2.9346356e-06 0)
(0.27247165 5.9370201e-08 0)
(28.382638 -0.0067005419 0)
(28.532329 -0.020572024 0)
(28.852421 -0.030134184 0)
(29.337041 -0.032974421 0)
(30.288808 -0.020294446 0)
(31.814125 -0.0035615094 0)
(33.710097 0.0086029114 0)
(35.72841 0.01792433 0)
(37.628256 0.022806851 0)
(39.10226 0.024104092 0)
(39.975247 0.022355528 0)
(40.017311 0.019069173 0)
(38.73581 0.015595058 0)
(36.240026 0.012219855 0)
(32.860434 0.0088983513 0)
(28.983992 0.0061953127 0)
(25.028948 0.0041719311 0)
(21.247681 0.0027272907 0)
(17.779421 0.0017358788 0)
(14.695688 0.0010784865 0)
(12.010842 0.00065526591 0)
(9.7015414 0.00038893025 0)
(7.7297282 0.0002249022 0)
(6.054283 0.00012610066 0)
(4.6357705 6.7978101e-05 0)
(3.4381667 3.4749752e-05 0)
(2.4293752 1.6270303e-05 0)
(1.581236 6.4141411e-06 0)
(0.86930646 1.745469e-06 0)
(0.27254005 9.3000826e-08 0)
(28.371919 -0.0068508087 0)
(28.521065 -0.020961472 0)
(28.839983 -0.030505014 0)
(29.322214 -0.032995203 0)
(30.269872 -0.019886487 0)
(31.791375 -0.0026529429 0)
(33.684166 0.010179292 0)
(35.700744 0.019927601 0)
(37.599977 0.024918851 0)
(39.074288 0.026246055 0)
(39.947508 0.024511008 0)
(39.989317 0.02112623 0)
(38.707795 0.017431113 0)
(36.212536 0.013776079 0)
(32.834157 0.010191227 0)
(28.960337 0.0072467849 0)
(25.008537 0.0050149433 0)
(21.23055 0.0033950862 0)
(17.765342 0.002258058 0)
(14.684278 0.0014797575 0)
(12.001651 0.00095623332 0)
(9.6941649 0.00060749741 0)
(7.7238441 0.00037734044 0)
(6.0496423 0.00022728495 0)
(4.63218 0.00013110131 0)
(3.4354717 7.092363e-05 0)
(2.4274479 3.4699853e-05 0)
(1.5799675 1.4157605e-05 0)
(0.86860246 3.9901529e-06 0)
(0.27231733 1.4402158e-07 0)
(28.361073 -0.0069408588 0)
(28.509748 -0.021172195 0)
(28.827727 -0.03065247 0)
(29.307925 -0.032939583 0)
(30.2517 -0.019649011 0)
(31.769328 -0.0020775702 0)
(33.659108 0.011202446 0)
(35.673927 0.021183767 0)
(37.572455 0.026275887 0)
(39.046911 0.027642039 0)
(39.9202 0.025936525 0)
(39.961506 0.022493016 0)
(38.67953 0.018651094 0)
(36.184376 0.014792917 0)
(32.806867 0.011007103 0)
(28.935437 0.0078710831 0)
(24.986795 0.0054713118 0)
(21.212141 0.0037137121 0)
(17.750164 0.0024706471 0)
(14.67204 0.0016154057 0)
(11.99194 0.0010392293 0)
(9.6865583 0.00065629606 0)
(7.7179638 0.0004049484 0)
(6.0451662 0.00024230971 0)
(4.628841 0.00013895451 0)
(3.4330517 7.4895127e-05 0)
(2.4257709 3.657529e-05 0)
(1.5788928 1.4917899e-05 0)
(0.86801828 4.2127118e-06 0)
(0.27213579 1.8231375e-07 0)
(28.350162 -0.0069897015 0)
(28.498422 -0.0212744 0)
(28.815587 -0.030686205 0)
(29.293887 -0.032862201 0)
(30.233846 -0.01950862 0)
(31.747567 -0.0017165197 0)
(33.634439 0.01185638 0)
(35.647489 0.021977088 0)
(37.545273 0.027149461 0)
(39.019784 0.028552348 0)
(39.893039 0.026873799 0)
(39.933662 0.023403153 0)
(38.650913 0.019468164 0)
(36.155551 0.015484199 0)
(32.778649 0.011572408 0)
(28.909428 0.0083172045 0)
(24.963864 0.0058133155 0)
(21.192536 0.0039696942 0)
(17.733827 0.0026583556 0)
(14.658707 0.0017502716 0)
(11.98121 0.0011339874 0)
(9.6780206 0.00072111612 0)
(7.7112517 0.00044786424 0)
(6.0399688 0.00026958997 0)
(4.6248988 0.00015539498 0)
(3.4301501 8.405525e-05 0)
(2.4237324 4.115701e-05 0)
(1.5775714 1.6834477e-05 0)
(0.86729355 4.7625301e-06 0)
(0.27190883 2.0149914e-07 0)
(28.339223 -0.0070128981 0)
(28.48711 -0.021317388 0)
(28.803539 -0.03067077 0)
(29.280018 -0.032793742 0)
(30.21621 -0.019435254 0)
(31.726018 -0.0014948579 0)
(33.61004 0.012273053 0)
(35.621323 0.022486507 0)
(37.518342 0.027719665 0)
(38.992856 0.029153131 0)
(39.866012 0.027496036 0)
(39.905838 0.024008048 0)
(38.622112 0.020012083 0)
(36.126339 0.015942466 0)
(32.749877 0.011944522 0)
(28.882753 0.008607219 0)
(24.94022 0.0060311701 0)
(21.172227 0.0041281123 0)
(17.716838 0.0027702971 0)
(14.644798 0.001827289 0)
(11.969991 0.0011856925 0)
(9.6690824 0.00075498472 0)
(7.7042205 0.00046947002 0)
(6.0345235 0.00028292258 0)
(4.6207696 0.00016328398 0)
(3.4271122 8.8505455e-05 0)
(2.4215995 4.3435979e-05 0)
(1.5761895 1.7804528e-05 0)
(0.86653609 5.0562345e-06 0)
(0.27167178 2.2736971e-07 0)
(28.328276 -0.007020946 0)
(28.475817 -0.021329817 0)
(28.791559 -0.030637123 0)
(29.266258 -0.032743036 0)
(30.19871 -0.01941016 0)
(31.704602 -0.0013678671 0)
(33.585808 0.012533005 0)
(35.595326 0.022814828 0)
(37.491568 0.028093907 0)
(38.96605 0.029553487 0)
(39.839063 0.027913688 0)
(39.878012 0.0244166 0)
(38.593168 0.020380855 0)
(36.096845 0.016254675 0)
(32.720708 0.012199652 0)
(28.855604 0.0088079286 0)
(24.916068 0.0061837544 0)
(21.151414 0.0042406744 0)
(17.699372 0.0028510472 0)
(14.630455 0.0018837611 0)
(11.958389 0.0012240952 0)
(9.6598121 0.00078028143 0)
(7.6969087 0.00048548385 0)
(6.0288474 0.00029259228 0)
(4.6164562 0.00016876291 0)
(3.4239328 9.1304035e-05 0)
(2.4193636 4.4682122e-05 0)
(1.5747391 1.8247469e-05 0)
(0.86574035 5.1541817e-06 0)
(0.27142255 2.1164273e-07 0)
(28.317329 -0.0070206341 0)
(28.464543 -0.021328314 0)
(28.779627 -0.03060077 0)
(29.252573 -0.032712175 0)
(30.181305 -0.019421482 0)
(31.683277 -0.0013070075 0)
(33.561688 0.012687017 0)
(35.569443 0.023024035 0)
(37.464899 0.028339062 0)
(38.939327 0.029822139 0)
(39.812167 0.028196471 0)
(39.850185 0.024694647 0)
(38.564126 0.020632303 0)
(36.067158 0.016467329 0)
(32.691271 0.012373244 0)
(28.828132 0.008944313 0)
(24.891571 0.0062871378 0)
(21.130256 0.0043165621 0)
(17.681582 0.0029052007 0)
(14.61582 0.0019214922 0)
(11.946531 0.0012498019 0)
(9.6503243 0.00079736547 0)
(7.6894164 0.00049654476 0)
(6.0230251 0.0002995251 0)
(4.6120278 0.00017293115 0)
(3.4206663 9.3675678e-05 0)
(2.4170653 4.5909012e-05 0)
(1.5732476 1.8785111e-05 0)
(0.86492176 5.3276811e-06 0)
(0.2711661 2.3217651e-07 0)
(28.306389 -0.0070160965 0)
(28.453287 -0.021321964 0)
(28.767731 -0.030568798 0)
(29.238942 -0.03270021 0)
(30.163967 -0.019460777 0)
(31.662016 -0.0012932374 0)
(33.537644 0.012767872 0)
(35.543636 0.023152867 0)
(37.438302 0.028497343 0)
(38.912659 0.030003028 0)
(39.785305 0.028389595 0)
(39.822354 0.024886345 0)
(38.535013 0.020806405 0)
(36.037335 0.016614887 0)
(32.661644 0.012494314 0)
(28.800434 0.0090401631 0)
(24.866831 0.006360517 0)
(21.108858 0.0043710157 0)
(17.663565 0.0029445553 0)
(14.600978 0.0019493096 0)
(11.934491 0.0012690239 0)
(9.6406807 0.00081028515 0)
(7.681794 0.00050497057 0)
(6.017097 0.00030482386 0)
(4.6075159 0.00017610155 0)
(3.4173363 9.5437955e-05 0)
(2.4147212 4.679475e-05 0)
(1.5717258 1.9159302e-05 0)
(0.86408634 5.4307012e-06 0)
(0.27090431 2.3393521e-07 0)
(28.295456 -0.0070097969 0)
(28.442045 -0.021315527 0)
(28.755863 -0.030543963 0)
(29.225353 -0.032704823 0)
(30.146682 -0.019521677 0)
(31.640803 -0.001313834 0)
(33.513654 0.012797079 0)
(35.517883 0.023226523 0)
(37.411754 0.028595848 0)
(38.886029 0.030123493 0)
(39.758467 0.02852115 0)
(39.79452 0.025018707 0)
(38.505849 0.020926982 0)
(36.007416 0.016716856 0)
(32.631884 0.012578001 0)
(28.772578 0.0091064676 0)
(24.84192 0.0064112048 0)
(21.087288 0.0044084822 0)
(17.645384 0.0029714623 0)
(14.585987 0.0019681597 0)
(11.922318 0.0012819251 0)
(9.6309227 0.00081889817 0)
(7.6740754 0.00051058136 0)
(6.0110902 0.00030835871 0)
(4.6029416 0.00017823993 0)
(3.4139588 9.6677349e-05 0)
(2.4123427 4.7447803e-05 0)
(1.5701812 1.9449786e-05 0)
(0.86323824 5.5291122e-06 0)
(0.27063851 2.4801007e-07 0)
(28.28453 -0.0070031892 0)
(28.430815 -0.021311452 0)
(28.744017 -0.030526937 0)
(29.211796 -0.03272319 0)
(30.12944 -0.019599063 0)
(31.619628 -0.0013597648 0)
(33.489705 0.012789324 0)
(35.49217 0.023261734 0)
(37.385243 0.028652741 0)
(38.859428 0.030201578 0)
(39.731648 0.028609553 0)
(39.766685 0.025109756 0)
(38.476649 0.021010432 0)
(35.977429 0.016787521 0)
(32.602034 0.012636387 0)
(28.744613 0.0091532822 0)
(24.816892 0.0064474258 0)
(21.065601 0.0044355804 0)
(17.627092 0.0029910947 0)
(14.570894 0.0019819869 0)
(11.910057 0.0012913236 0)
(9.6210884 0.0008250454 0)
(7.666293 0.00051440724 0)
(6.0050316 0.00031060455 0)
(4.5983264 0.00017945347 0)
(3.4105502 9.7247843e-05 0)
(2.4099419 4.7666959e-05 0)
(1.5686219 1.9501594e-05 0)
(0.86238194 5.5217525e-06 0)
(0.27037012 2.3272065e-07 0)
(28.273611 -0.0069971036 0)
(28.419594 -0.0213109 0)
(28.732189 -0.030517221 0)
(29.198266 -0.032752548 0)
(30.112233 -0.019689045 0)
(31.598484 -0.0014245267 0)
(33.465788 0.012754609 0)
(35.466488 0.023269262 0)
(37.35876 0.028679549 0)
(38.832849 0.030249432 0)
(39.704843 0.028666952 0)
(39.738849 0.025170569 0)
(38.447424 0.021066349 0)
(35.947394 0.016834525 0)
(32.572119 0.012674983 0)
(28.716572 0.0091841474 0)
(24.791781 0.0064711097 0)
(21.04383 0.0044531426 0)
(17.60872 0.0030037192 0)
(14.555728 0.0019908344 0)
(11.89773 0.0012973854 0)
(9.6111973 0.00082911859 0)
(7.6584629 0.00051708955 0)
(5.9989339 0.00031231478 0)
(4.5936802 0.00018050592 0)
(3.407118 9.7862018e-05 0)
(2.407524 4.7995032e-05 0)
(1.5670514 1.9657539e-05 0)
(0.86151938 5.5835773e-06 0)
(0.27009974 2.4619648e-07 0)
(28.262698 -0.0069919766 0)
(28.40838 -0.021314192 0)
(28.720375 -0.030513858 0)
(29.18476 -0.032790596 0)
(30.095058 -0.019788761 0)
(31.577369 -0.0015034637 0)
(33.441898 0.012699772 0)
(35.44083 0.023256524 0)
(37.332299 0.028684844 0)
(38.806288 0.030276276 0)
(39.678051 0.028702788 0)
(39.711014 0.025210519 0)
(38.418181 0.021103708 0)
(35.917325 0.016866225 0)
(32.54216 0.012701391 0)
(28.688478 0.009205887 0)
(24.766613 0.0064882601 0)
(21.022002 0.0044663447 0)
(17.590294 0.0030136321 0)
(14.540512 0.001998094 0)
(11.885358 0.0013026069 0)
(9.6012676 0.00083277537 0)
(7.6506002 0.00051956612 0)
(5.9928097 0.00031393274 0)
(4.589013 0.00018151386 0)
(3.4036698 9.8449398e-05 0)
(2.4050946 4.8306934e-05 0)
(1.5654732 1.9795988e-05 0)
(0.86065259 5.6193273e-06 0)
(0.26982803 2.4500794e-07 0)
(28.251788 -0.0069879787 0)
(28.39717 -0.021321154 0)
(28.708573 -0.030516032 0)
(29.171275 -0.032835357 0)
(30.077912 -0.019895674 0)
(31.556279 -0.0015932249 0)
(33.418029 0.012629965 0)
(35.415191 0.02322899 0)
(37.305856 0.028674454 0)
(38.77974 0.030287755 0)
(39.651268 0.028722701 0)
(39.68318 0.025235021 0)
(38.388925 0.02112699 0)
(35.887233 0.016885811 0)
(32.51217 0.012717665 0)
(28.660349 0.0092194131 0)
(24.741405 0.0064988086 0)
(21.000132 0.0044743861 0)
(17.571827 0.003019596 0)
(14.525257 0.0020023197 0)
(11.87295 0.0013055517 0)
(9.5913052 0.00083479379 0)
(7.6427093 0.00052092311 0)
(5.9866618 0.00031481747 0)
(4.5843268 0.00018207563 0)
(3.4002069 9.8802104e-05 0)
(2.4026545 4.8508293e-05 0)
(1.5638878 1.9895065e-05 0)
(0.85978178 5.6606357e-06 0)
(0.26955503 2.5478096e-07 0)
(28.240881 -0.0069850814 0)
(28.385964 -0.021331335 0)
(28.696779 -0.03052295 0)
(29.157807 -0.032885565 0)
(30.060793 -0.020007848 0)
(31.535213 -0.0016909806 0)
(33.394179 0.012549146 0)
(35.389569 0.023190905 0)
(37.279428 0.028652264 0)
(38.753206 0.030287473 0)
(39.624494 0.028730638 0)
(39.655348 0.025248166 0)
(38.359661 0.021140118 0)
(35.857125 0.01689696 0)
(32.482162 0.012727414 0)
(28.632198 0.0092280951 0)
(24.716174 0.006506044 0)
(20.978239 0.0044803129 0)
(17.553337 0.003024264 0)
(14.50998 0.0020057706 0)
(11.860523 0.0013079387 0)
(9.5813267 0.00083635546 0)
(7.634805 0.00052186167 0)
(5.980503 0.00031533723 0)
(4.5796319 0.00018232506 0)
(3.3967374 9.8894264e-05 0)
(2.4002096 4.8523006e-05 0)
(1.5622994 1.9873524e-05 0)
(0.85890924 5.6317967e-06 0)
(0.26928148 2.3882614e-07 0)
(28.229975 -0.006983116 0)
(28.374759 -0.021344038 0)
(28.684994 -0.030533541 0)
(29.144357 -0.03294046 0)
(30.043699 -0.020124592 0)
(31.51417 -0.0017949951 0)
(33.370347 0.012459624 0)
(35.363962 0.023144821 0)
(37.253013 0.028621207 0)
(38.726682 0.030278061 0)
(39.597728 0.028729051 0)
(39.627519 0.025252125 0)
(38.330393 0.021144479 0)
(35.827008 0.016900116 0)
(32.452144 0.012730111 0)
(28.604035 0.0092306042 0)
(24.690928 0.0065081153 0)
(20.956329 0.0044819891 0)
(17.53483 0.0030255812 0)
(14.494687 0.0020067239 0)
(11.84808 0.0013085765 0)
(9.5713343 0.00083676427 0)
(7.6268885 0.00052211672 0)
(5.974334 0.00031548297 0)
(4.5749288 0.00018240103 0)
(3.3932617 9.8910854e-05 0)
(2.3977602 4.8516901e-05 0)
(1.5607079 1.987849e-05 0)
(0.85803503 5.6500053e-06 0)
(0.26900741 2.499011e-07 0)
(28.219069 -0.0069818686 0)
(28.363554 -0.021358583 0)
(28.673215 -0.030547135 0)
(29.130923 -0.032999185 0)
(30.026628 -0.020245027 0)
(31.493148 -0.0019043917 0)
(33.34653 0.012362905 0)
(35.338368 0.023092153 0)
(37.226611 0.028583284 0)
(38.70017 0.030262165 0)
(39.570971 0.028720781 0)
(39.599692 0.025250008 0)
(38.301121 0.021143341 0)
(35.796885 0.016898647 0)
(32.422123 0.012729293 0)
(28.575868 0.0092307014 0)
(24.665677 0.0065088145 0)
(20.934414 0.0044830271 0)
(17.516318 0.0030268145 0)
(14.479388 0.0020079872 0)
(11.835632 0.0013097004 0)
(9.5613365 0.00083768169 0)
(7.6189675 0.0005228405 0)
(5.9681612 0.00031604007 0)
(4.5702228 0.00018280862 0)
(3.3897837 9.9209948e-05 0)
(2.3953092 4.8711496e-05 0)
(1.5591153 1.997294e-05 0)
(0.85716021 5.6721362e-06 0)
(0.26873314 2.4760378e-07 0)
(28.208163 -0.0069811744 0)
(28.352349 -0.02137457 0)
(28.661444 -0.030563391 0)
(29.117504 -0.033061013 0)
(30.009582 -0.020368104 0)
(31.472147 -0.0020181148 0)
(33.322728 0.012260423 0)
(35.312786 0.023034233 0)
(37.20022 0.028539794 0)
(38.673667 0.030241408 0)
(39.544221 0.028707435 0)
(39.57187 0.02524307 0)
(38.27185 0.021137566 0)
(35.766762 0.016892883 0)
(32.392102 0.01272466 0)
(28.547702 0.0092275514 0)
(24.640425 0.0065067543 0)
(20.912497 0.0044816356 0)
(17.497801 0.0030259073 0)
(14.464083 0.0020074234 0)
(11.823176 0.0013093065 0)
(9.5513312 0.00083739663 0)
(7.6110392 0.00052263128 0)
(5.961982 0.00031587558 0)
(4.5655113 0.00018268172 0)
(3.3863013 9.9098374e-05 0)
(2.3928549 4.8631098e-05 0)
(1.5575206 1.9940884e-05 0)
(0.85628414 5.6769881e-06 0)
(0.26845847 2.5625728e-07 0)
(28.197256 -0.0069809486 0)
(28.341144 -0.021391819 0)
(28.649679 -0.030581655 0)
(29.1041 -0.03312531 0)
(29.992559 -0.020493485 0)
(31.451169 -0.0021351209 0)
(33.29894 0.012153402 0)
(35.287216 0.022972536 0)
(37.173839 0.028492206 0)
(38.647174 0.030216921 0)
(39.517479 0.028690279 0)
(39.544052 0.02523304 0)
(38.24258 0.021129373 0)
(35.73664 0.016885409 0)
(32.362087 0.012719067 0)
(28.519544 0.0092242752 0)
(24.615182 0.0065051614 0)
(20.890587 0.0044810881 0)
(17.479291 0.0030259573 0)
(14.448783 0.0020077803 0)
(11.810725 0.0013097357 0)
(9.5413292 0.00083779362 0)
(7.6031137 0.00052296041 0)
(5.9558052 0.00031613957 0)
(4.5608017 0.00018288203 0)
(3.3828204 9.9272287e-05 0)
(2.3904017 4.8754765e-05 0)
(1.5559265 1.9989888e-05 0)
(0.85540847 5.6712043e-06 0)
(0.26818392 2.434746e-07 0)
(28.186347 -0.0069811891 0)
(28.329938 -0.021410296 0)
(28.637921 -0.030601471 0)
(29.090712 -0.033191251 0)
(29.975559 -0.020620498 0)
(31.430211 -0.0022546412 0)
(33.275166 0.012042854 0)
(35.261657 0.022908081 0)
(37.147469 0.02844114 0)
(38.620689 0.030188864 0)
(39.490745 0.028668727 0)
(39.516239 0.025219421 0)
(38.213311 0.021117747 0)
(35.706522 0.016874698 0)
(32.33208 0.012710209 0)
(28.491395 0.0092178496 0)
(24.589946 0.0065005166 0)
(20.868683 0.0044777119 0)
(17.460784 0.003023514 0)
(14.433486 0.0020060536 0)
(11.798274 0.0013085043 0)
(9.5313267 0.00083690431 0)
(7.5951871 0.00052230447 0)
(5.9496269 0.00031564242 0)
(4.5560908 0.00018251047 0)
(3.3793384 9.8964168e-05 0)
(2.3879476 4.8538847e-05 0)
(1.5543319 1.9892244e-05 0)
(0.8545325 5.6600701e-06 0)
(0.26790929 2.5304434e-07 0)
(28.175437 -0.0069819124 0)
(28.318731 -0.021429944 0)
(28.626169 -0.030622621 0)
(29.077338 -0.03325798 0)
(29.958582 -0.020748367 0)
(31.409275 -0.0023764914 0)
(33.251405 0.011929375 0)
(35.236109 0.022841422 0)
(37.121109 0.028387444 0)
(38.594213 0.030158633 0)
(39.464018 0.028642792 0)
(39.488429 0.025203922 0)
(38.184046 0.021104495 0)
(35.676407 0.016863057 0)
(32.302082 0.012700902 0)
(28.463259 0.0092114537 0)
(24.564723 0.0064962962 0)
(20.846791 0.0044750829 0)
(17.442289 0.0030220466 0)
(14.418196 0.0020054055 0)
(11.78583 0.0013083631 0)
(9.5213292 0.0008370096 0)
(7.5872644 0.00052252755 0)
(5.9434518 0.00031591135 0)
(4.5513823 0.00018276941 0)
(3.3758582 9.9215396e-05 0)
(2.3854948 4.8729353e-05 0)
(1.5527381 1.998759e-05 0)
(0.85365698 5.6808134e-06 0)
(0.26763479 2.49709e-07 0)
(28.164523 -0.0069831157 0)
(28.307522 -0.021450618 0)
(28.614422 -0.030644829 0)
(29.063979 -0.033325355 0)
(29.941627 -0.020876809 0)
(31.38836 -0.0025000122 0)
(33.227657 0.011813506 0)
(35.210571 0.022772963 0)
(37.094758 0.028331727 0)
(38.567746 0.030127485 0)
(39.437297 0.028610751 0)
(39.460624 0.025187556 0)
(38.154782 0.021089543 0)
(35.646298 0.016849694 0)
(32.272094 0.012689873 0)
(28.435135 0.009203271 0)
(24.539513 0.0064902563 0)
(20.82491 0.0044706677 0)
(17.423801 0.0030188815 0)
(14.402912 0.0020032078 0)
(11.773388 0.0013068567 0)
(9.5113318 0.00083597393 0)
(7.5793406 0.00052180605 0)
(5.9372748 0.00031540081 0)
(4.5466718 0.00018241166 0)
(3.3723761 9.8942473e-05 0)
(2.3830405 4.8547881e-05 0)
(1.5511433 1.9906278e-05 0)
(0.85278082 5.6697088e-06 0)
(0.26736008 2.563499e-07 0)
(28.153607 -0.0069847343 0)
(28.296311 -0.021472102 0)
(28.602679 -0.030668013 0)
(29.050633 -0.033393499 0)
(29.924695 -0.02100551 0)
(31.367465 -0.0026243784 0)
(33.203921 0.011695927 0)
(35.185043 0.022703426 0)
(37.068416 0.028274742 0)
(38.541286 0.030095562 0)
(39.410584 0.02857992 0)
(39.432824 0.025171469 0)
(38.125522 0.02107443 0)
(35.616195 0.01683651 0)
(32.242119 0.0126796 0)
(28.407028 0.0091961981 0)
(24.51432 0.00648566 0)
(20.803047 0.0044678791 0)
(17.405331 0.0030173182 0)
(14.387643 0.0020024689 0)
(11.760959 0.0013066095 0)
(9.501346 0.00083598769 0)
(7.5714263 0.00052195458 0)
(5.9311057 0.00031561615 0)
(4.5419675 0.00018263719 0)
(3.3688987 9.9185813e-05 0)
(2.3805896 4.8741251e-05 0)
(1.5495506 1.9997398e-05 0)
(0.85190587 5.6767345e-06 0)
(0.26708576 2.4476736e-07 0)
(28.142688 -0.0069866463 0)
(28.285097 -0.02149404 0)
(28.590941 -0.030692076 0)
(29.037301 -0.033462279 0)
(29.907784 -0.021134374 0)
(31.346592 -0.0027499086 0)
(33.180197 0.01157676 0)
(35.159524 0.022633131 0)
(37.042083 0.02821646 0)
(38.514834 0.030062343 0)
(39.383877 0.028551605 0)
(39.405027 0.025153916 0)
(38.096265 0.021057165 0)
(35.586097 0.01682089 0)
(32.212155 0.012666792 0)
(28.378935 0.0091864505 0)
(24.489141 0.0064783702 0)
(20.781197 0.0044625136 0)
(17.386872 0.0030133561 0)
(14.372383 0.0019995848 0)
(11.748537 0.0013045138 0)
(9.4913651 0.00083446595 0)
(7.5635157 0.00052083448 0)
(5.9249391 0.00031478012 0)
(4.537265 0.0001820216 0)
(3.3654226 9.8696656e-05 0)
(2.3781396 4.8406024e-05 0)
(1.5479585 1.9840006e-05 0)
(0.85103127 5.6475131e-06 0)
(0.26681155 2.5290414e-07 0)
(28.131765 -0.0069887186 0)
(28.27388 -0.021516078 0)
(28.579207 -0.030716766 0)
(29.023981 -0.033531792 0)
(29.890895 -0.021263668 0)
(31.325739 -0.0028767702 0)
(33.156485 0.01145587 0)
(35.134014 0.022561922 0)
(37.015758 0.028156825 0)
(38.48839 0.030028492 0)
(39.357177 0.028520255 0)
(39.377235 0.025135882 0)
(38.067012 0.021038745 0)
(35.556007 0.016804562 0)
(32.182205 0.012653815 0)
(28.350859 0.0091770274 0)
(24.463981 0.0064718197 0)
(20.759365 0.0044583602 0)
(17.368429 0.0030108857 0)
(14.357138 0.0019981703 0)
(11.736127 0.0013037994 0)
(9.4813946 0.00083417726 0)
(7.5556136 0.00052081358 0)
(5.9187795 0.00031491434 0)
(4.532568 0.00018221845 0)
(3.3619507 9.8942435e-05 0)
(2.3756926 4.8611212e-05 0)
(1.5463684 1.9945191e-05 0)
(0.85015776 5.6702993e-06 0)
(0.26653768 2.4915061e-07 0)
(28.120839 -0.0069908811 0)
(28.262661 -0.021538085 0)
(28.567478 -0.030742044 0)
(29.010675 -0.033602278 0)
(29.874029 -0.021393435 0)
(31.304908 -0.0030044794 0)
(33.132785 0.011333566 0)
(35.108515 0.022490011 0)
(36.989443 0.028096419 0)
(38.461954 0.029994066 0)
(39.330484 0.028489416 0)
(39.349448 0.02511723 0)
(38.037763 0.021019511 0)
(35.525923 0.016787328 0)
(32.152269 0.012639697 0)
(28.3228 0.0091662857 0)
(24.438837 0.0064638268 0)
(20.737547 0.0044527647 0)
(17.349998 0.0030070176 0)
(14.3419 0.0019954214 0)
(11.723722 0.0013018378 0)
(9.4714264 0.00083278569 0)
(7.5477123 0.00051981384 0)
(5.9126198 0.00031418351 0)
(4.5278705 0.00018168879 0)
(3.3584781 9.8525173e-05 0)
(2.3732449 4.8327319e-05 0)
(1.5447778 1.9812186e-05 0)
(0.84928394 5.6445074e-06 0)
(0.26626371 2.5516064e-07 0)
(28.109909 -0.006993153 0)
(28.251439 -0.021560176 0)
(28.555754 -0.030767865 0)
(28.997383 -0.033673343 0)
(29.857184 -0.021523416 0)
(31.284097 -0.0031328631 0)
(33.109096 0.011210085 0)
(35.083024 0.022417459 0)
(36.963137 0.028035271 0)
(38.435527 0.029959473 0)
(39.303798 0.02846047 0)
(39.321666 0.025098883 0)
(38.008518 0.02100103 0)
(35.495849 0.016771387 0)
(32.122348 0.012627189 0)
(28.294762 0.0091575268 0)
(24.413713 0.0064580537 0)
(20.715749 0.0044493128 0)
(17.331586 0.0030051711 0)
(14.326679 0.0019945587 0)
(11.711332 0.0013015639 0)
(9.4614711 0.00083285089 0)
(7.5398219 0.00052007024 0)
(5.906469 0.00031452998 0)
(4.52318 0.00018204629 0)
(3.3550109 9.8898988e-05 0)
(2.3708011 4.8622197e-05 0)
(1.5431898 1.9960501e-05 0)
(0.84841154 5.670417e-06 0)
(0.26599018 2.4592029e-07 0)
(28.098975 -0.006995607 0)
(28.240216 -0.021582528 0)
(28.544035 -0.030793994 0)
(28.984105 -0.0337443 0)
(29.840361 -0.021653485 0)
(31.263309 -0.0032623582 0)
(33.085419 0.01108526 0)
(35.057544 0.022344387 0)
(36.93684 0.027973014 0)
(38.409108 0.029924303 0)
(39.27712 0.028429976 0)
(39.293889 0.025079522 0)
(37.979277 0.020980635 0)
(35.465782 0.016753549 0)
(32.092443 0.012612412 0)
(28.266741 0.0091463816 0)
(24.388608 0.0064498267 0)
(20.693968 0.0044432935 0)
(17.313187 0.0030008149 0)
(14.311469 0.0019914266 0)
(11.69895 0.0012992767 0)
(9.4515216 0.00083118328 0)
(7.5319359 0.00051882341 0)
(5.9003216 0.00031357878 0)
(4.5184922 0.00018133128 0)
(3.3515457 9.832065e-05 0)
(2.3683587 4.8220909e-05 0)
(1.5416027 1.9767794e-05 0)
(0.84753966 5.6302366e-06 0)
(0.26571683 2.5304571e-07 0)
(28.088038 -0.0069983404 0)
(28.22899 -0.021605303 0)
(28.532321 -0.030820444 0)
(28.97084 -0.033815051 0)
(29.823561 -0.021783373 0)
(31.242542 -0.0033924861 0)
(33.061754 0.010959568 0)
(35.032073 0.022271432 0)
(36.910552 0.027910419 0)
(38.382697 0.02988831 0)
(39.250449 0.028399435 0)
(39.266117 0.025059817 0)
(37.95004 0.020960636 0)
(35.435723 0.01673662 0)
(32.062553 0.012598786 0)
(28.23874 0.009136674 0)
(24.363524 0.00644329 0)
(20.672207 0.004439072 0)
(17.294806 0.0029983403 0)
(14.296274 0.0019901389 0)
(11.686581 0.0012987014 0)
(9.4415825 0.00083101977 0)
(7.5240584 0.00051890447 0)
(5.894181 0.00031379183 0)
(4.5138096 0.00018158884 0)
(3.3480845 9.8617507e-05 0)
(2.3659193 4.8462571e-05 0)
(1.5400176 1.9890996e-05 0)
(0.84666886 5.6571852e-06 0)
(0.26544381 2.4877992e-07 0)
(28.077096 -0.0070014213 0)
(28.217761 -0.021628585 0)
(28.520612 -0.030847384 0)
(28.95759 -0.033885747 0)
(29.806782 -0.021912784 0)
(31.221797 -0.003522589 0)
(33.0381 0.010833363 0)
(35.006612 0.022198534 0)
(36.884274 0.027847499 0)
(38.356295 0.029852003 0)
(39.223785 0.028369343 0)
(39.238349 0.025039824 0)
(37.920807 0.020940367 0)
(35.405672 0.016719157 0)
(32.032677 0.012584294 0)
(28.210758 0.0091257121 0)
(24.338457 0.0064352081 0)
(20.650461 0.0044331787 0)
(17.276437 0.002994189 0)
(14.281087 0.0019872906 0)
(11.674215 0.0012967148 0)
(9.4316448 0.00082962386 0)
(7.5161805 0.00051789903 0)
(5.8880391 0.00031305031 0)
(4.5091254 0.00018104465 0)
(3.3446216 9.8182227e-05 0)
(2.3634784 4.8162377e-05 0)
(1.5384313 1.9747305e-05 0)
(0.84579741 5.6268485e-06 0)
(0.26517058 2.5367927e-07 0)
(28.066151 -0.0070048534 0)
(28.206529 -0.021652268 0)
(28.508907 -0.030874712 0)
(28.944352 -0.033956219 0)
(29.790026 -0.02204184 0)
(31.201073 -0.0036532333 0)
(33.014457 0.010706235 0)
(34.98116 0.022125329 0)
(36.858004 0.027784006 0)
(38.329901 0.02981608 0)
(39.197128 0.028339868 0)
(39.210586 0.025020681 0)
(37.891578 0.020920557 0)
(35.375629 0.01670252 0)
(32.002819 0.012571168 0)
(28.182798 0.0091164684 0)
(24.313416 0.0064290738 0)
(20.62874 0.0044293762 0)
(17.258092 0.0029921191 0)
(14.265921 0.0019863835 0)
(11.661868 0.0012965273 0)
(9.421723 0.00082983538 0)
(7.5083158 0.00051833762 0)
(5.8819078 0.00031359029 0)
(4.5044495 0.00018158193 0)
(3.341165 9.8716966e-05 0)
(2.361042 4.8577276e-05 0)
(1.5368481 1.9960559e-05 0)
(0.84492762 5.6700857e-06 0)
(0.26489786 2.4444125e-07 0)
(28.055201 -0.0070085778 0)
(28.195294 -0.021676157 0)
(28.497206 -0.030902476 0)
(28.931127 -0.034026644 0)
(29.773291 -0.02217061 0)
(31.180371 -0.0037846236 0)
(32.990825 0.010578102 0)
(34.955718 0.022051961 0)
(36.831744 0.027719875 0)
(38.303516 0.029779017 0)
(39.170479 0.028309507 0)
(39.182829 0.024999975 0)
(37.862354 0.020899084 0)
(35.345595 0.016683829 0)
(31.972977 0.012555709 0)
(28.154858 0.0091045866 0)
(24.288394 0.0064199888 0)
(20.607038 0.0044225141 0)
(17.239763 0.0029870259 0)
(14.250768 0.0019826576 0)
(11.649532 0.0012937719 0)
(9.4118088 0.00082778821 0)
(7.5004568 0.0005167806 0)
(5.8757809 0.00031238452 0)
(4.4997769 0.00018066248 0)
(3.3377108 9.7963403e-05 0)
(2.3586074 4.8048194e-05 0)
(1.535266 1.9702209e-05 0)
(0.84405848 5.6132733e-06 0)
(0.26462536 2.5225368e-07 0)
(28.044247 -0.0070124984 0)
(28.184056 -0.021700015 0)
(28.485509 -0.030930813 0)
(28.917915 -0.034097644 0)
(29.756578 -0.022299148 0)
(31.159691 -0.0039161428 0)
(32.967204 0.010449231 0)
(34.930285 0.021978557 0)
(36.805493 0.027655107 0)
(38.277139 0.029740944 0)
(39.143836 0.028278629 0)
(39.155075 0.024978585 0)
(37.833132 0.020877625 0)
(35.315568 0.016665663 0)
(31.943149 0.012541219 0)
(28.126938 0.009094136 0)
(24.263394 0.0064127081 0)
(20.585358 0.0044176546 0)
(17.221454 0.0029839734 0)
(14.235634 0.0019808855 0)
(11.637211 0.0012928493 0)
(9.4019083 0.00082739053 0)
(7.4926092 0.00051673052 0)
(5.8696631 0.0003125483 0)
(4.4951115 0.00018092163 0)
(3.3342622 9.8309809e-05 0)
(2.3561767 4.8343509e-05 0)
(1.5336865 1.9851487e-05 0)
(0.84319078 5.6443512e-06 0)
(0.26435332 2.4622269e-07 0)
(28.033289 -0.0070165498 0)
(28.172815 -0.021723621 0)
(28.473816 -0.030959532 0)
(28.904717 -0.034169309 0)
(29.739887 -0.022427905 0)
(31.139033 -0.0040482049 0)
(32.943594 0.010319409 0)
(34.904862 0.0219047 0)
(36.779251 0.027589292 0)
(38.25077 0.029702393 0)
(39.117201 0.028247739 0)
(39.127325 0.02495673 0)
(37.803913 0.020855386 0)
(35.285547 0.016646591 0)
(31.913336 0.012525458 0)
(28.099036 0.0090821469 0)
(24.238413 0.0064037887 0)
(20.563694 0.004411065 0)
(17.203159 0.0029790965 0)
(14.220509 0.0019773679 0)
(11.624896 0.0012902992 0)
(9.3920104 0.00082552319 0)
(7.4847624 0.00051532414 0)
(5.863545 0.00031146856 0)
(4.4904452 0.00018010263 0)
(3.3308125 9.7626711e-05 0)
(2.353745 4.7861845e-05 0)
(1.5321062 1.9618765e-05 0)
(0.84232264 5.593286e-06 0)
(0.26408112 2.5310129e-07 0)