/*--------------------------------*- C++ -*----------------------------------*\
| =========                 |                                                 |
| \\      /  F ield         | OpenFOAM: The Open Source CFD Toolbox           |
|  \\    /   O peration     | Version:  v2012                                 |
|   \\  /    A nd           | Website:  www.openfoam.com                      |
|    \\/     M anipulation  |                                                 |
\*---------------------------------------------------------------------------*/
FoamFile
{
    version     2.0;
    format      ascii;
    class       volScalarField;
    location    "650";
    object      alphat;
}
// * * * * * * * * * * * * * * * * * * * * * * * * * * * * * * * * * * * * * //

dimensions      [1 -1 -1 0 0 0 0];


internalField   nonuniform List<scalar> 
24000
(
0.00070180806
0.00022736265
0.00014231164
0.00015400897
0.00015916641
0.00013604385
0.00010969103
8.4606494e-05
6.7028343e-05
5.3990171e-05
2.968759e-05
1.5829767e-05
1.1384552e-05
8.2558425e-06
4.7830913e-06
2.8195394e-06
1.6303299e-06
8.2803128e-07
3.3321106e-07
1.1607833e-07
3.6112344e-08
1.0255165e-08
2.6712343e-09
6.2965107e-10
1.2998584e-10
2.2208418e-11
2.9050974e-12
3.3693204e-13
1.4331268e-13
1.566136e-13
0.00070321487
0.00022466445
0.00014137111
0.00015372774
0.00015879201
0.00013592128
0.00010967834
8.4600267e-05
6.7000398e-05
5.3917019e-05
2.9646758e-05
1.5803882e-05
1.1360544e-05
8.2211582e-06
4.763205e-06
2.8075196e-06
1.6227064e-06
8.2385787e-07
3.3135202e-07
1.1538844e-07
3.5890029e-08
1.019089e-08
2.6543579e-09
6.2566155e-10
1.2916114e-10
2.2066945e-11
2.8861087e-12
3.3425907e-13
1.4181638e-13
1.5497857e-13
0.00070466472
0.00022701214
0.00014228362
0.00015350012
0.00015849487
0.00013557424
0.00010935497
8.4292279e-05
6.6722234e-05
5.3825645e-05
2.9587681e-05
1.576909e-05
1.1333066e-05
8.1905644e-06
4.7444793e-06
2.7962152e-06
1.615577e-06
8.1900875e-07
3.2912047e-07
1.1454612e-07
3.5618002e-08
1.0112818e-08
2.6340891e-09
6.2093078e-10
1.2819806e-10
2.1905947e-11
2.8664494e-12
3.3307134e-13
1.4209733e-13
1.5525459e-13
0.00070614569
0.00022794102
0.00014246021
0.00015328002
0.00015826035
0.00013536023
0.00010915629
8.4110542e-05
6.6549897e-05
5.3726689e-05
2.952307e-05
1.5732558e-05
1.1306122e-05
8.1571979e-06
4.7253524e-06
2.7853086e-06
1.6090502e-06
8.1511643e-07
3.2743811e-07
1.1393709e-07
3.5425658e-08
1.0058111e-08
2.6199094e-09
6.1761406e-10
1.2751963e-10
2.1791465e-11
2.8519642e-12
3.3175068e-13
1.4178881e-13
1.54902e-13
0.00070764834
0.00022876372
0.00014252267
0.00015306234
0.00015803408
0.00013515034
0.00010896259
8.3935929e-05
6.6382105e-05
5.3622805e-05
2.9453676e-05
1.5693813e-05
1.1278721e-05
8.1246216e-06
4.7064143e-06
2.7743182e-06
1.6023381e-06
8.1095008e-07
3.2559863e-07
1.1326011e-07
3.5209527e-08
9.9962579e-09
2.6038263e-09
6.1384661e-10
1.2674867e-10
2.166144e-11
2.8355755e-12
3.303145e-13
1.4150838e-13
1.5457703e-13
0.00070916948
0.00022938997
0.00014251267
0.00015284681
0.00015781124
0.00013494951
0.00010877879
8.3770766e-05
6.6220908e-05
5.3515686e-05
2.9381166e-05
1.5653659e-05
1.125112e-05
8.0918453e-06
4.6872797e-06
2.7631685e-06
1.5955223e-06
8.0672904e-07
3.237361e-07
1.1257488e-07
3.4990746e-08
9.9336198e-09
2.5875295e-09
6.1002655e-10
1.2596642e-10
2.1529408e-11
2.818905e-12
3.2883263e-13
1.411989e-13
1.5421911e-13
0.00071070676
0.00022991016
0.00014247598
0.00015263287
0.00015758997
0.00013475219
0.00010859884
8.3609052e-05
6.6063262e-05
5.3406418e-05
2.9306503e-05
1.5612523e-05
1.1223393e-05
8.0590259e-06
4.6680532e-06
2.7519271e-06
1.5886397e-06
8.0245925e-07
3.2185061e-07
1.118808e-07
3.4769035e-08
9.8701155e-09
2.5710009e-09
6.061509e-10
1.2517253e-10
2.1395364e-11
2.8019632e-12
3.2731236e-13
1.4086808e-13
1.5383706e-13
0.00071225889
0.00023033287
0.00014242606
0.00015242031
0.00015736942
0.00013455677
0.00010842102
8.3449382e-05
6.5910009e-05
5.3295684e-05
2.9230344e-05
1.5570731e-05
1.1195613e-05
8.0262064e-06
4.6487854e-06
2.7406378e-06
1.5817225e-06
7.9816466e-07
3.1995359e-07
1.1118229e-07
3.4545844e-08
9.8061676e-09
2.5543521e-09
6.0224603e-10
1.2437248e-10
2.1260249e-11
2.7848784e-12
3.2577301e-13
1.4052715e-13
1.5344281e-13
0.00071382521
0.00023069213
0.00014236975
0.00015220892
0.00015714939
0.00013436235
0.00010824415
8.3290853e-05
6.5758685e-05
5.3183909e-05
2.9153134e-05
1.5528505e-05
1.1167834e-05
7.9934346e-06
4.6295194e-06
2.7293339e-06
1.574794e-06
7.9386283e-07
3.1805374e-07
1.1048283e-07
3.432235e-08
9.7421275e-09
2.5376771e-09
5.9833451e-10
1.2357097e-10
2.1124869e-11
2.7677534e-12
3.24224e-13
1.4017831e-13
1.5303893e-13
0.00071540538
0.00023101005
0.0001423101
0.00015199861
0.0001569297
0.00013416859
0.00010806797
8.3133077e-05
6.5608252e-05
5.3071384e-05
2.9075171e-05
1.5485992e-05
1.1140079e-05
7.9607424e-06
4.6102833e-06
2.718035e-06
1.5678671e-06
7.8956245e-07
3.1615498e-07
1.0978386e-07
3.4099009e-08
9.6781252e-09
2.52101e-09
5.9442437e-10
1.2276966e-10
2.0989513e-11
2.7506275e-12
3.22671e-13
1.3982476e-13
1.526289e-13
0.00071699932
0.00023130206
0.00014224872
0.00015178929
0.00015671023
0.00013397533
0.00010789226
8.2975931e-05
6.5458335e-05
5.2958304e-05
2.8996656e-05
1.5443294e-05
1.1112367e-05
7.9281537e-06
4.591097e-06
2.7067563e-06
1.5609525e-06
7.8527165e-07
3.1426138e-07
1.0908701e-07
3.3876379e-08
9.6143284e-09
2.5043958e-09
5.9052644e-10
1.2197082e-10
2.0854566e-11
2.7335505e-12
3.2111924e-13
1.3946832e-13
1.5221479e-13
0.00071860704
0.00023157816
0.00014218644
0.00015158087
0.00015649073
0.00013378235
0.0001077168
8.281918e-05
6.530879e-05
5.2844805e-05
2.8917731e-05
1.5400481e-05
1.1084708e-05
7.8956809e-06
4.5719721e-06
2.6955068e-06
1.5540559e-06
7.8099448e-07
3.1237474e-07
1.0839294e-07
3.3654665e-08
9.5507956e-09
2.4878496e-09
5.8664426e-10
1.2117516e-10
2.0720152e-11
2.7165389e-12
3.1957075e-13
1.3911e-13
1.517977e-13
0.00072022865
0.0002318436
0.00014212374
0.00015137332
0.00015627114
0.00013358957
0.00010754151
8.2662669e-05
6.5159465e-05
5.2730985e-05
2.8838499e-05
1.5357599e-05
1.1057113e-05
7.8633366e-06
4.5529187e-06
2.6842946e-06
1.547183e-06
7.7673488e-07
3.1049699e-07
1.0770244e-07
3.3434141e-08
9.4876088e-09
2.4713937e-09
5.8278318e-10
1.2038381e-10
2.0586464e-11
2.6996178e-12
3.180286e-13
1.3875117e-13
1.5137921e-13
0.00072186424
0.00023210039
0.00014206082
0.00015116656
0.0001560514
0.00013339704
0.00010736649
8.2506404e-05
6.5010289e-05
5.2616911e-05
2.8759033e-05
1.5314684e-05
1.1029593e-05
7.831126e-06
4.5339419e-06
2.6731228e-06
1.5403357e-06
7.7249403e-07
3.0862851e-07
1.0701559e-07
3.3214825e-08
9.4247707e-09
2.4550285e-09
5.789432e-10
1.1959675e-10
2.04535e-11
2.6827875e-12
3.1649316e-13
1.3839229e-13
1.5095983e-13
0.00072351392
0.00023234975
0.0001419977
0.00015096057
0.00015583142
0.00013320466
0.00010719158
8.2350353e-05
6.4861285e-05
5.2502634e-05
2.8679388e-05
1.527176e-05
1.1002144e-05
7.7990545e-06
4.5150475e-06
2.6619957e-06
1.5335174e-06
7.6827451e-07
3.0677068e-07
1.0633299e-07
3.299692e-08
9.3623438e-09
2.4387705e-09
5.7512839e-10
1.1881485e-10
2.0321404e-11
2.6660665e-12
3.1496631e-13
1.3803399e-13
1.505403e-13
0.0007251778
0.00023259342
0.00014193431
0.00015075529
0.00015561115
0.00013301238
0.00010701678
8.2194439e-05
6.4712435e-05
5.2388189e-05
2.8599601e-05
1.5228848e-05
1.0974766e-05
7.7671231e-06
4.496237e-06
2.6509149e-06
1.5267286e-06
7.6407688e-07
3.049237e-07
1.0565466e-07
3.2780428e-08
9.3003255e-09
2.422619e-09
5.7133845e-10
1.1803802e-10
2.0190162e-11
2.6494525e-12
3.1344784e-13
1.3767621e-13
1.5012063e-13
0.00072685595
0.00023283307
0.00014187063
0.0001505507
0.00015539043
0.00013282025
0.00010684216
8.2038704e-05
6.4563704e-05
5.2273603e-05
2.8519702e-05
1.5185963e-05
1.094746e-05
7.7353361e-06
4.477513e-06
2.6398829e-06
1.5199714e-06
7.599024e-07
3.0308824e-07
1.049809e-07
3.2565451e-08
9.2387488e-09
2.406583e-09
5.6757558e-10
1.1726673e-10
2.0059855e-11
2.6329564e-12
3.1193911e-13
1.3731963e-13
1.4970158e-13
0.00072854846
0.00023306902
0.0001418066
0.00015034676
0.00015516927
0.00013262824
0.00010666773
8.1883217e-05
6.4415152e-05
5.2158895e-05
2.8439712e-05
1.5143114e-05
1.092023e-05
7.7036934e-06
4.4588753e-06
2.6288989e-06
1.5132449e-06
7.557503e-07
3.0126378e-07
1.0431145e-07
3.2351892e-08
9.1775821e-09
2.3906537e-09
5.6383763e-10
1.1650053e-10
1.9930407e-11
2.6165683e-12
3.1043926e-13
1.369641e-13
1.4928302e-13
0.00073025537
0.00023330027
0.00014174214
0.00015014342
0.00015494763
0.00013243631
0.0001064934
8.1727912e-05
6.4266817e-05
5.2044078e-05
2.8359654e-05
1.5100307e-05
1.089308e-05
7.6721966e-06
4.440326e-06
2.6179644e-06
1.5065505e-06
7.516218e-07
2.9945101e-07
1.0364662e-07
3.213987e-08
9.1168638e-09
2.3748417e-09
5.6012724e-10
1.1573997e-10
1.9801912e-11
2.6003002e-12
3.089494e-13
1.3660989e-13
1.488653e-13
0.00073197672
0.00023352587
0.00014167711
0.00014994068
0.00015472553
0.0001322445
0.00010631928
8.1572733e-05
6.4118606e-05
5.1929166e-05
2.8279541e-05
1.5057548e-05
1.0866002e-05
7.6408463e-06
4.4218655e-06
2.6070794e-06
1.4998879e-06
7.4751658e-07
2.9764963e-07
1.0298628e-07
3.1929328e-08
9.0565749e-09
2.3591418e-09
5.5644308e-10
1.1498477e-10
1.9674319e-11
2.5841454e-12
3.0746877e-13
1.3625672e-13
1.4844818e-13
0.00073371252
0.00023374614
0.00014161139
0.00014973849
0.00015450293
0.00013205277
0.00010614532
8.1417697e-05
6.3970502e-05
5.1814169e-05
2.8199386e-05
1.5014841e-05
1.0838993e-05
7.6096428e-06
4.4034948e-06
2.5962461e-06
1.4932587e-06
7.4343563e-07
2.9586026e-07
1.0233069e-07
3.1720365e-08
8.9967459e-09
2.3435623e-09
5.527872e-10
1.1423536e-10
1.9547703e-11
2.5681138e-12
3.0599858e-13
1.359052e-13
1.4803236e-13
0.00073546276
0.00023396217
0.00014154488
0.00014953683
0.00015427968
0.00013186107
0.00010597141
8.1262761e-05
6.3822555e-05
5.1699093e-05
2.8119201e-05
1.4972194e-05
1.0812055e-05
7.5785851e-06
4.3852127e-06
2.5854631e-06
1.4866617e-06
7.3937803e-07
2.9408228e-07
1.0167955e-07
3.1512863e-08
8.9373391e-09
2.3280928e-09
5.4915697e-10
1.1349117e-10
1.9421967e-11
2.5521927e-12
3.0453769e-13
1.3555508e-13
1.4761759e-13
0.00073722741
0.00023417436
0.00014147755
0.00014933568
0.0001540558
0.00013166943
0.00010579767
8.1107944e-05
6.3674748e-05
5.1583948e-05
2.8038997e-05
1.4929611e-05
1.078519e-05
7.5476722e-06
4.3670203e-06
2.5747313e-06
1.4800982e-06
7.3534487e-07
2.9231636e-07
1.0103316e-07
3.1306936e-08
8.8783904e-09
2.312743e-09
5.4555483e-10
1.1275274e-10
1.9297199e-11
2.5363934e-12
3.0308703e-13
1.352065e-13
1.4720409e-13
0.00073900645
0.00023438173
0.00014140934
0.000149135
0.00015383129
0.00013147787
0.00010562411
8.0953317e-05
6.352707e-05
5.1468738e-05
2.7958782e-05
1.4887094e-05
1.0758401e-05
7.5169061e-06
4.3489169e-06
2.5640494e-06
1.4735668e-06
7.3133523e-07
2.9056195e-07
1.0039127e-07
3.110249e-08
8.8198706e-09
2.297505e-09
5.4197885e-10
1.1201964e-10
1.9173328e-11
2.5207062e-12
3.0164546e-13
1.3485899e-13
1.4679139e-13
0.00074079979
0.00023458288
0.00014134014
0.00014893477
0.0001536062
0.00013128637
0.00010545067
8.0798866e-05
6.337959e-05
5.1353468e-05
2.7878565e-05
1.4844645e-05
1.0731677e-05
7.4862856e-06
4.3309028e-06
2.5534189e-06
1.4670686e-06
7.2734965e-07
2.8881935e-07
9.975404e-08
3.089959e-08
8.761802e-09
2.2823852e-09
5.384306e-10
1.1129221e-10
1.9050412e-11
2.5051391e-12
3.0021407e-13
1.3451311e-13
1.4638013e-13
0.00074260737
0.00023477755
0.00014126986
0.00014873497
0.00015338055
0.00013109494
0.0001052774
8.0644585e-05
6.3232285e-05
5.123814e-05
2.779835e-05
1.4802262e-05
1.0705016e-05
7.4558103e-06
4.3129764e-06
2.5428381e-06
1.4606021e-06
7.233869e-07
2.8708782e-07
9.9121128e-08
3.0698106e-08
8.7041427e-09
2.2673718e-09
5.3490721e-10
1.1056986e-10
1.8928348e-11
2.4896788e-12
2.9879165e-13
1.341686e-13
1.4597006e-13
0.00074442908
0.00023496673
0.0001411984
0.00014853558
0.00015315424
0.00013090361
0.00010510435
8.0490462e-05
6.3085093e-05
5.1122758e-05
2.7718144e-05
1.4759948e-05
1.067842e-05
7.4254779e-06
4.2951387e-06
2.5323084e-06
1.4541688e-06
7.1944828e-07
2.8536815e-07
9.8492883e-08
3.0498167e-08
8.6469332e-09
2.2524762e-09
5.3141144e-10
1.0985315e-10
1.8807235e-11
2.4743376e-12
2.9737923e-13
1.3382566e-13
1.4556144e-13
0.00074626481
0.0002351515
0.00014112573
0.00014833658
0.00015292721
0.00013071226
0.00010493137
8.0336442e-05
6.2938058e-05
5.1007328e-05
2.7637957e-05
1.4717708e-05
1.0651892e-05
7.3952895e-06
4.2773891e-06
2.5218284e-06
1.4477678e-06
7.1553307e-07
2.8365987e-07
9.7869083e-08
3.0299691e-08
8.5901465e-09
2.2376907e-09
5.2794139e-10
1.0914168e-10
1.8687e-11
2.4591057e-12
2.9597564e-13
1.3348376e-13
1.4515375e-13
0.00074811442
0.00023533155
0.00014105181
0.00014813795
0.00015269945
0.00013052095
0.00010475854
8.0182535e-05
6.2791167e-05
5.0891856e-05
2.7557798e-05
1.4675544e-05
1.062543e-05
7.3652453e-06
4.2597278e-06
2.5113991e-06
1.4413998e-06
7.1164173e-07
2.8196333e-07
9.7249896e-08
3.0102742e-08
8.5338047e-09
2.2230217e-09
5.2449868e-10
1.084358e-10
1.8567705e-11
2.4439917e-12
2.9458196e-13
1.3314344e-13
1.447476e-13
0.00074997776
0.00023550529
0.00014097657
0.00014793967
0.00015247106
0.00013032973
0.00010458591
8.002879e-05
6.2644386e-05
5.0776347e-05
2.7477672e-05
1.4633457e-05
1.0599027e-05
7.3353428e-06
4.2421522e-06
2.5010186e-06
1.4350629e-06
7.0777286e-07
2.8027765e-07
9.6634927e-08
2.9907177e-08
8.4778625e-09
2.2084567e-09
5.2108024e-10
1.0773486e-10
1.844924e-11
2.4289813e-12
2.9319686e-13
1.3280439e-13
1.4434268e-13
0.00075185459
0.00023567161
0.00014089997
0.00014774173
0.00015224204
0.00013013855
0.0001044134
7.9875209e-05
6.2497772e-05
5.0660804e-05
2.7397586e-05
1.4591447e-05
1.057268e-05
7.3055798e-06
4.2246633e-06
2.4906882e-06
1.4287586e-06
7.0392768e-07
2.7860356e-07
9.6024506e-08
2.9713114e-08
8.422357e-09
2.1940059e-09
5.1768859e-10
1.0703939e-10
1.8331693e-11
2.4140857e-12
2.9182127e-13
1.3246674e-13
1.439392e-13
0.00075374477
0.00023583097
0.00014082192
0.00014754411
0.00015201236
0.00012994746
0.00010424106
7.9721834e-05
6.2351366e-05
5.0545233e-05
2.7317543e-05
1.4549514e-05
1.0546391e-05
7.2759563e-06
4.2072601e-06
2.4804062e-06
1.4224854e-06
7.0010517e-07
2.7694044e-07
9.5418365e-08
2.9520454e-08
8.3672573e-09
2.1796607e-09
5.1432158e-10
1.0634894e-10
1.8214986e-11
2.3992942e-12
2.9045394e-13
1.3212996e-13
1.435366e-13
0.00075564814
0.00023598474
0.00014074241
0.00014734679
0.00015178199
0.00012975644
0.000104069
7.9568662e-05
6.2205105e-05
5.0429636e-05
2.7237552e-05
1.4507659e-05
1.0520161e-05
7.2464762e-06
4.1899436e-06
2.4701737e-06
1.4162446e-06
6.963058e-07
2.7528868e-07
9.4816688e-08
2.9329271e-08
8.3125881e-09
2.1654282e-09
5.1098102e-10
1.0566389e-10
1.8099186e-11
2.3846162e-12
2.8909613e-13
1.3179473e-13
1.4313564e-13
0.00075756451
0.00023613337
0.00014066142
0.00014714978
0.00015155086
0.00012956544
0.00010389701
7.9415608e-05
6.2058992e-05
5.0314019e-05
2.7157619e-05
1.4465883e-05
1.0493989e-05
7.2171339e-06
4.1727103e-06
2.4599884e-06
1.410034e-06
6.9252809e-07
2.7364736e-07
9.4219055e-08
2.9139413e-08
8.258301e-09
2.1512949e-09
5.0766361e-10
1.0498355e-10
1.7984175e-11
2.3700364e-12
2.8774641e-13
1.3146068e-13
1.4273594e-13
0.00075949364
0.00023627569
0.00014057894
0.00014695305
0.00015131904
0.00012937449
0.00010372521
7.9262669e-05
6.1913028e-05
5.019839e-05
2.7077754e-05
1.4424191e-05
1.0467867e-05
7.1879282e-06
4.1555612e-06
2.4498517e-06
1.403855e-06
6.8877342e-07
2.7201732e-07
9.3625841e-08
2.8951016e-08
8.2044391e-09
2.137273e-09
5.0437232e-10
1.0430855e-10
1.787006e-11
2.3555682e-12
2.8640591e-13
1.31128e-13
1.4233774e-13
0.00076143528
0.00023641033
0.00014049492
0.0001467566
0.00015108658
0.00012918363
0.00010355361
7.9109903e-05
6.1767189e-05
5.0082756e-05
2.6997965e-05
1.4382583e-05
1.0441795e-05
7.1588566e-06
4.1384953e-06
2.4397623e-06
1.3977064e-06
6.850409e-07
2.7039797e-07
9.3036771e-08
2.8763978e-08
8.1509691e-09
2.123353e-09
5.0110479e-10
1.0363838e-10
1.7756752e-11
2.3411997e-12
2.8507316e-13
1.3079601e-13
1.4194037e-13
0.00076338915
0.00023653718
0.00014040927
0.00014656043
0.0001508535
0.00012899286
0.00010338216
7.8957297e-05
6.1621515e-05
4.9967124e-05
2.6918258e-05
1.4341061e-05
1.0415773e-05
7.1299241e-06
4.1215145e-06
2.4297215e-06
1.3915896e-06
6.8133121e-07
2.6878976e-07
9.2452072e-08
2.8578384e-08
8.0979198e-09
2.1095432e-09
4.9786311e-10
1.0297349e-10
1.764433e-11
2.3269414e-12
2.8374953e-13
1.3046543e-13
1.4154462e-13
0.00076535494
0.00023665747
0.000140322
0.00014636452
0.00015061979
0.00012880216
0.0001032109
7.8804891e-05
6.1476034e-05
4.98515e-05
2.683864e-05
1.4299625e-05
1.0389801e-05
7.1011256e-06
4.1046142e-06
2.4197263e-06
1.385502e-06
6.7764247e-07
2.6719161e-07
9.1871258e-08
2.8394056e-08
8.0452342e-09
2.0958277e-09
4.9464337e-10
1.0231304e-10
1.7532651e-11
2.3127752e-12
2.8243334e-13
1.301358e-13
1.4114998e-13
0.00076733237
0.00023677246
0.0001402331
0.00014616889
0.00015038536
0.0001286116
0.00010303994
7.8652744e-05
6.1330742e-05
4.973589e-05
2.6759116e-05
1.4258274e-05
1.0363878e-05
7.0724614e-06
4.0877951e-06
2.4097781e-06
1.3794451e-06
6.7397593e-07
2.6560432e-07
9.1294706e-08
2.8211136e-08
7.9929588e-09
2.0822196e-09
4.9144887e-10
1.0165776e-10
1.7421838e-11
2.2987168e-12
2.8112593e-13
1.298074e-13
1.4075681e-13
0.00076932122
0.00023688209
0.00014014261
0.00014597351
0.0001501502
0.0001284211
0.00010286914
7.8500753e-05
6.1185616e-05
4.96203e-05
2.6679694e-05
1.4217011e-05
1.0337998e-05
7.0439266e-06
4.0710562e-06
2.3998754e-06
1.3734175e-06
6.7033064e-07
2.6402727e-07
9.0722126e-08
2.8029516e-08
7.9410589e-09
2.0687092e-09
4.8827713e-10
1.0100709e-10
1.7311796e-11
2.2847535e-12
2.7982582e-13
1.2947958e-13
1.4036445e-13
0.00077132113
0.00023698492
0.00014005047
0.00014577842
0.00014991437
0.00012823066
0.00010269855
7.8348886e-05
6.1040642e-05
4.9504741e-05
2.6600382e-05
1.4175839e-05
1.031216e-05
7.0155259e-06
4.0544e-06
2.3900201e-06
1.3674209e-06
6.667076e-07
2.6246108e-07
9.0153799e-08
2.7849303e-08
7.8895695e-09
2.0553063e-09
4.8513064e-10
1.0036159e-10
1.720262e-11
2.270898e-12
2.7853468e-13
1.2915321e-13
1.3997385e-13
0.00077333177
0.00023707983
0.00013995663
0.00014558359
0.00014967796
0.00012804038
0.00010252822
7.8197221e-05
6.0895804e-05
4.938922e-05
2.6521183e-05
1.4134759e-05
1.0286366e-05
6.9872568e-06
4.0378221e-06
2.380209e-06
1.3614526e-06
6.63105e-07
2.6090464e-07
8.9589212e-08
2.7670309e-08
7.8384298e-09
2.041994e-09
4.8200521e-10
9.9720368e-11
1.7094155e-11
2.2571306e-12
2.7725065e-13
1.2882782e-13
1.3958446e-13
0.00077535276
0.00023716715
0.00013986112
0.00014538905
0.00014944095
0.00012785017
0.00010235809
7.8045743e-05
6.0751152e-05
4.9273749e-05
2.6442108e-05
1.4093775e-05
1.0260615e-05
6.9591173e-06
4.0213225e-06
2.3704435e-06
1.3555143e-06
6.5952422e-07
2.5935886e-07
8.9028792e-08
2.749269e-08
7.78769e-09
2.0287864e-09
4.7890435e-10
9.9084159e-11
1.6986531e-11
2.2434675e-12
2.7597506e-13
1.2850357e-13
1.3919656e-13
0.00077738374
0.00023724808
0.000139764
0.0001451948
0.00014920331
0.0001276601
0.00010218821
7.7894503e-05
6.06067e-05
4.9158337e-05
2.6363169e-05
1.4052886e-05
1.0234907e-05
6.931103e-06
4.0048991e-06
2.3607214e-06
1.349604e-06
6.5596385e-07
2.5782291e-07
8.8472179e-08
2.7316314e-08
7.7373084e-09
2.0156718e-09
4.7582517e-10
9.8452351e-11
1.6879641e-11
2.2298944e-12
2.7470622e-13
1.2817969e-13
1.3880931e-13
0.00077942435
0.00023732333
0.0001396654
0.00014500084
0.0001489651
0.00012747016
0.00010201866
7.7743558e-05
6.0462456e-05
4.9042991e-05
2.6284371e-05
1.401209e-05
1.0209235e-05
6.9032138e-06
3.9885547e-06
2.3510445e-06
1.3437233e-06
6.5242466e-07
2.5629731e-07
8.7919635e-08
2.7141285e-08
7.68732e-09
2.0026605e-09
4.7277024e-10
9.78255e-11
1.6773582e-11
2.2164247e-12
2.7344587e-13
1.2785709e-13
1.3842371e-13
0.0007814742
0.00023739202
0.00013956536
0.00014480719
0.00014872632
0.00012728031
0.00010184932
7.7592793e-05
6.0318389e-05
4.8927719e-05
2.6205721e-05
1.3971388e-05
1.01836e-05
6.87545e-06
3.9722858e-06
2.34141e-06
1.3378698e-06
6.4890496e-07
2.5478102e-07
8.7370672e-08
2.6967421e-08
7.6376659e-09
1.9897358e-09
4.6973546e-10
9.7202734e-11
1.6668206e-11
2.203039e-12
2.7219223e-13
1.2753533e-13
1.3803927e-13
0.00078353285
0.00023745246
0.00013946393
0.00014461383
0.00014848708
0.0001270906
0.00010168024
7.7442191e-05
6.0174488e-05
4.8812534e-05
2.6127227e-05
1.3930784e-05
1.0158003e-05
6.8478067e-06
3.9560918e-06
2.3318193e-06
1.3320452e-06
6.4540644e-07
2.5327504e-07
8.6825739e-08
2.6794886e-08
7.5883991e-09
1.9769126e-09
4.667245e-10
9.6584824e-11
1.6563643e-11
2.1897541e-12
2.7094672e-13
1.2721467e-13
1.376563e-13
0.00078559986
0.00023750391
0.00013936111
0.00014442084
0.00014824747
0.00012690105
0.00010151145
7.7291817e-05
6.0030751e-05
4.8697444e-05
2.6048898e-05
1.389028e-05
1.0132443e-05
6.820282e-06
3.9399706e-06
2.3222703e-06
1.3262476e-06
6.4192781e-07
2.5177862e-07
8.6284488e-08
2.6623555e-08
7.5394791e-09
1.9641794e-09
4.6373451e-10
9.5971169e-11
1.6459788e-11
2.1765561e-12
2.6970767e-13
1.2689434e-13
1.3727403e-13
0.0007876748
0.00023754705
0.00013925694
0.00014422821
0.0001480074
0.00012671167
0.00010134288
7.7141647e-05
5.9887204e-05
4.8582463e-05
2.5970746e-05
1.3849877e-05
1.0106916e-05
6.7928744e-06
3.9239243e-06
2.3127645e-06
1.3204785e-06
6.3846963e-07
2.502922e-07
8.5747154e-08
2.6453519e-08
7.4909371e-09
1.9515453e-09
4.6076779e-10
9.5362271e-11
1.635673e-11
2.1634572e-12
2.6847674e-13
1.2657523e-13
1.368934e-13
0.00078975721
0.00023758338
0.00013915164
0.00014393229
0.00014776676
0.00012652248
0.00010117466
7.6991755e-05
5.974384e-05
4.84676e-05
2.5892777e-05
1.3809575e-05
1.0081419e-05
6.7655847e-06
3.9079503e-06
2.3032989e-06
1.3147351e-06
6.3502996e-07
2.4881462e-07
8.5213214e-08
2.6284587e-08
7.4427117e-09
1.9389931e-09
4.5782014e-10
9.4757239e-11
1.6254317e-11
2.1504376e-12
2.6725211e-13
1.262569e-13
1.3651391e-13
0.0007918466
0.00023761365
0.00013904545
0.00014349092
0.00014752529
0.00012633339
0.00010100678
7.6842194e-05
5.9600711e-05
4.8352863e-05
2.5814996e-05
1.3769372e-05
1.0055951e-05
6.7384104e-06
3.8920476e-06
2.2938749e-06
1.3090194e-06
6.3161043e-07
2.4734687e-07
8.4683124e-08
2.6116925e-08
7.394856e-09
1.9265378e-09
4.5489525e-10
9.4156861e-11
1.6152681e-11
2.1375145e-12
2.6603527e-13
1.2593964e-13
1.3613592e-13
0.00079394248
0.00023763697
0.00013893854
0.00014304978
0.00014728296
0.0001261444
0.00010083922
7.6692835e-05
5.9457782e-05
4.8238263e-05
2.5737411e-05
1.3729271e-05
1.0030512e-05
6.7113489e-06
3.8762138e-06
2.2844907e-06
1.3033295e-06
6.2821004e-07
2.4588832e-07
8.4156587e-08
2.5950423e-08
7.3473342e-09
1.9141694e-09
4.5199057e-10
9.3560583e-11
1.6051729e-11
2.1246751e-12
2.6482468e-13
1.2562275e-13
1.357587e-13
0.00079604431
0.0002376518
0.00013883093
0.00014260942
0.00014703993
0.00012595553
0.00010067196
7.6543669e-05
5.9315021e-05
4.8123814e-05
2.5660033e-05
1.3689274e-05
1.0005101e-05
6.6843982e-06
3.8604508e-06
2.2751476e-06
1.2976668e-06
6.2482951e-07
2.4443945e-07
8.3633848e-08
2.5785175e-08
7.3001781e-09
1.9018968e-09
4.4910841e-10
9.296891e-11
1.5951548e-11
2.1119314e-12
2.636219e-13
1.2530701e-13
1.353831e-13
0.00079815156
0.00023765753
0.00013872268
0.00014216981
0.00014679619
0.00012576679
0.00010050504
7.6394752e-05
5.9172445e-05
4.8009528e-05
2.5582872e-05
1.3649382e-05
9.9797156e-06
6.6575554e-06
3.8447561e-06
2.2658426e-06
1.2920286e-06
6.2146693e-07
2.4299914e-07
8.3114389e-08
2.5620993e-08
7.2533281e-09
1.8897036e-09
4.462447e-10
9.2380973e-11
1.585199e-11
2.0992641e-12
2.6242514e-13
1.2499196e-13
1.3500859e-13
0.00080026362
0.0002376549
0.00013861398
0.00014173098
0.00014655174
0.00012557818
0.00010033844
7.6246093e-05
5.9030079e-05
4.7895419e-05
2.5505935e-05
1.3609597e-05
9.9543526e-06
6.6308221e-06
3.8291291e-06
2.256577e-06
1.2864168e-06
6.1812364e-07
2.4156826e-07
8.2598607e-08
2.5458025e-08
7.2068315e-09
1.877603e-09
4.4340273e-10
9.1797473e-11
1.5753175e-11
2.0866888e-12
2.6123572e-13
1.2467784e-13
1.3463547e-13
0.00080237991
0.00023764537
0.00013850494
0.00014129293
0.00014630658
0.00012538976
0.00010017224
7.6097764e-05
5.8887943e-05
4.7781494e-05
2.5429225e-05
1.3569916e-05
9.9290103e-06
6.6041934e-06
3.8135667e-06
2.2473486e-06
1.2808293e-06
6.1479844e-07
2.4014613e-07
8.2086194e-08
2.5296158e-08
7.1606522e-09
1.8655848e-09
4.4057998e-10
9.1217869e-11
1.5655009e-11
2.0741929e-12
2.6005214e-13
1.2436397e-13
1.3426304e-13
0.00080449981
0.00023762991
0.00013839582
0.00014085569
0.00014606063
0.0001252015
0.0001000064
7.5949731e-05
5.8746036e-05
4.7667761e-05
2.5352748e-05
1.353034e-05
9.9036874e-06
6.5776697e-06
3.7980703e-06
2.2381588e-06
1.2752674e-06
6.1149201e-07
2.3873315e-07
8.1577374e-08
2.5135478e-08
7.1148192e-09
1.8536573e-09
4.3777855e-10
9.0642625e-11
1.5557574e-11
2.0617877e-12
2.5887598e-13
1.2405121e-13
1.3389221e-13
0.00080662266
0.0002376078
0.00013828678
0.0001404196
0.00014581394
0.00012501337
9.9840936e-05
7.58019e-05
5.8604318e-05
4.7554232e-05
2.5276514e-05
1.3490869e-05
9.8783837e-06
6.5512449e-06
3.7826372e-06
2.2290046e-06
1.2697287e-06
6.0820269e-07
2.3732837e-07
8.1071708e-08
2.4975823e-08
7.0692807e-09
1.8418063e-09
4.349949e-10
9.007099e-11
1.546074e-11
2.0494565e-12
2.5770569e-13
1.2373919e-13
1.3352253e-13
0.00080874778
0.00023757752
0.00013817798
0.00013998483
0.0001455666
0.00012482545
9.9675835e-05
7.5654312e-05
5.8462784e-05
4.744092e-05
2.5200531e-05
1.3451507e-05
9.8530974e-06
6.5249213e-06
3.7672681e-06
2.2198873e-06
1.2642146e-06
6.0493182e-07
2.3593258e-07
8.0569562e-08
2.4817329e-08
7.0240801e-09
1.8300438e-09
4.3223207e-10
8.9503609e-11
1.5364617e-11
2.0372136e-12
2.5654247e-13
1.2342808e-13
1.3315426e-13
0.00081087445
0.00023753844
0.0001380696
0.00013955154
0.00014531864
0.00012463771
9.9511091e-05
7.5506983e-05
5.832146e-05
4.7327836e-05
2.5124807e-05
1.3412252e-05
9.8278251e-06
6.4986935e-06
3.7519592e-06
2.210805e-06
1.2587238e-06
6.0167836e-07
2.3454517e-07
8.0070653e-08
2.4659892e-08
6.9791841e-09
1.8183605e-09
4.2948771e-10
8.8939982e-11
1.5269119e-11
2.0250471e-12
2.5538491e-13
1.2311728e-13
1.3278676e-13
0.00081300193
0.00023749112
0.0001379618
0.00013911972
0.00014507009
0.0001244502
9.934677e-05
7.5359963e-05
5.8180348e-05
4.721499e-05
2.5049345e-05
1.3373105e-05
9.8025645e-06
6.4725635e-06
3.7367113e-06
2.2017586e-06
1.2532571e-06
5.9844282e-07
2.3316656e-07
7.9575181e-08
2.4503589e-08
6.9346184e-09
1.8067638e-09
4.2676368e-10
8.8380511e-11
1.5174317e-11
2.012967e-12
2.5423436e-13
1.2280749e-13
1.3242077e-13
0.00081512944
0.00023743705
0.00013785487
0.00013868937
0.00014482094
0.00012426296
9.9182892e-05
7.5213298e-05
5.8039478e-05
4.7102389e-05
2.4974146e-05
1.3334064e-05
9.7773136e-06
6.4465242e-06
3.7215213e-06
2.1927451e-06
1.247812e-06
5.9522342e-07
2.3179574e-07
7.9082702e-08
2.4348262e-08
6.8903336e-09
1.7952401e-09
4.2405664e-10
8.782449e-11
1.5080091e-11
2.0009574e-12
2.5308934e-13
1.2249831e-13
1.3205584e-13
0.00081725617
0.00023737762
0.00013774905
0.00013826064
0.00014457112
0.0001240759
9.9019413e-05
7.5066879e-05
5.7898827e-05
4.6990043e-05
2.4899218e-05
1.3295129e-05
9.7520728e-06
6.420575e-06
3.7063903e-06
2.1837654e-06
1.2423896e-06
5.9202124e-07
2.3043337e-07
7.8593533e-08
2.4194029e-08
6.8463676e-09
1.7838e-09
4.2136924e-10
8.7272479e-11
1.4986536e-11
1.989031e-12
2.5195094e-13
1.2218995e-13
1.3169222e-13
0.00081938129
0.00023731257
0.00013764466
0.00013783366
0.00014432061
0.00012388908
9.8856338e-05
7.4920682e-05
5.7758361e-05
4.6877964e-05
2.4824569e-05
1.3256301e-05
9.7268402e-06
6.3947158e-06
3.6913151e-06
2.1748177e-06
1.2369885e-06
5.8883534e-07
2.2907888e-07
7.8107416e-08
2.4040794e-08
6.8026898e-09
1.7724349e-09
4.1869938e-10
8.6724026e-11
1.4893576e-11
1.9771772e-12
2.5081793e-13
1.2188189e-13
1.3132936e-13
0.00082150394
0.00023724047
0.00013754198
0.00013740882
0.00014406956
0.00012370249
9.8693643e-05
7.4774736e-05
5.761808e-05
4.6766161e-05
2.4750202e-05
1.3217579e-05
9.7016121e-06
6.3689444e-06
3.6762959e-06
2.1659036e-06
1.2316102e-06
5.8566646e-07
2.277327e-07
7.7624561e-08
2.3888636e-08
6.7593259e-09
1.7611521e-09
4.1604887e-10
8.6179525e-11
1.4801278e-11
1.9654057e-12
2.496917e-13
1.2157489e-13
1.3096807e-13
0.00082362324
0.00023716039
0.00013744121
0.00013698622
0.00014381801
0.00012351616
9.8531374e-05
7.462908e-05
5.7478005e-05
4.6654642e-05
2.4676121e-05
1.3178962e-05
9.6763857e-06
6.3432558e-06
3.6613294e-06
2.1570198e-06
1.2262522e-06
5.8251306e-07
2.2639396e-07
7.7144572e-08
2.373741e-08
6.7162303e-09
1.749939e-09
4.1341456e-10
8.5638315e-11
1.4709529e-11
1.9537017e-12
2.4857083e-13
1.2126859e-13
1.3060793e-13
0.00082573824
0.00023707257
0.00013734267
0.00013656592
0.00014356598
0.00012333016
9.8369617e-05
7.4483786e-05
5.7338164e-05
4.6543416e-05
2.4602327e-05
1.3140449e-05
9.6511598e-06
6.3176465e-06
3.6464163e-06
2.1481671e-06
1.2209155e-06
5.7937608e-07
2.2506333e-07
7.6667762e-08
2.3587234e-08
6.6734403e-09
1.738806e-09
4.107991e-10
8.5100963e-11
1.4618427e-11
1.9420779e-12
2.4745639e-13
1.2096311e-13
1.3024911e-13
0.00082784797
0.00023697829
0.00013724662
0.00013614805
0.00014331353
0.00012314444
9.8208272e-05
7.4338777e-05
5.7198556e-05
4.6432488e-05
2.4528823e-05
1.310204e-05
9.6259337e-06
6.2921181e-06
3.6315542e-06
2.1393431e-06
1.2155981e-06
5.7625424e-07
2.2374012e-07
7.6193824e-08
2.3437999e-08
6.6309218e-09
1.7277437e-09
4.0820018e-10
8.4566973e-11
1.4527885e-11
1.9305227e-12
2.4634695e-13
1.2065779e-13
1.2989091e-13
0.00082995143
0.00023687933
0.00013715346
0.00013573256
0.00014306051
0.00012295898
9.8047359e-05
7.4193974e-05
5.7059123e-05
4.6321868e-05
2.4455613e-05
1.3063732e-05
9.6007057e-06
6.2666684e-06
3.6167427e-06
2.1305492e-06
1.2103013e-06
5.7314817e-07
2.2242472e-07
7.5722952e-08
2.328978e-08
6.5887004e-09
1.7167595e-09
4.0561963e-10
8.4036751e-11
1.4437973e-11
1.9190461e-12
2.4524397e-13
1.2035349e-13
1.2953423e-13
0.0008320476
0.00023677658
0.00013706356
0.00013531971
0.00014280691
0.00012277378
9.7886855e-05
7.4049409e-05
5.6919857e-05
4.6211562e-05
2.4382698e-05
1.3025525e-05
9.5754715e-06
6.2412945e-06
3.6019785e-06
2.121783e-06
1.2050231e-06
5.700565e-07
2.2111628e-07
7.5254765e-08
2.3142437e-08
6.5467309e-09
1.7058407e-09
4.030543e-10
8.3509623e-11
1.4348577e-11
1.9076328e-12
2.4414603e-13