/*--------------------------------*- C++ -*----------------------------------*\
| =========                 |                                                 |
| \\      /  F ield         | OpenFOAM: The Open Source CFD Toolbox           |
|  \\    /   O peration     | Version:  v2012                                 |
|   \\  /    A nd           | Website:  www.openfoam.com                      |
|    \\/     M anipulation  |                                                 |
\*---------------------------------------------------------------------------*/
FoamFile
{
    version     2.0;
    format      ascii;
    class       volScalarField;
    location    "650";
    object      k;
}
// * * * * * * * * * * * * * * * * * * * * * * * * * * * * * * * * * * * * * //

dimensions      [0 2 -2 0 0 0 0];


internalField   nonuniform List<scalar> 
24000
(
0.11152877
0.13578179
0.21474673
0.50966368
1.2302657
2.2006279
3.0401693
3.3661356
3.0627137
2.4286596
1.9077596
2.0691748
3.2190474
4.2537338
4.3817134
3.7888032
2.814724
1.8011652
1.0057427
0.51243643
0.24581345
0.11248418
0.049040039
0.020126259
0.00760184
0.0025488719
0.0007280466
0.00021949509
0.00033097236
0.0023691803
0.11146935
0.1356133
0.21395155
0.50613816
1.2220533
2.1891205
3.0272216
3.3551415
3.0550065
2.423445
1.9035601
2.0637415
3.2101742
4.2406317
4.3672435
3.7748114
2.8029061
1.7926319
1.0005226
0.50962024
0.24441853
0.11183544
0.048755226
0.020009092
0.0075575418
0.0025339667
0.00072367705
0.00021787657
0.0003277188
0.0023455329
0.11141479
0.13545064
0.21319466
0.50293508
1.214892
2.1791778
3.0166015
3.346064
3.0479455
2.4181123
1.8989383
2.0584782
3.2017893
4.2274201
4.3514146
3.7588281
2.7890191
1.7821693
0.99403588
0.50612474
0.24269878
0.11104157
0.048409101
0.019867746
0.0075046358
0.0025165273
0.00071901042
0.00021716561
0.00032842087
0.002350888
0.11135811
0.13528697
0.21244685
0.49979595
1.2077849
2.1692318
3.0059451
3.336712
3.0404989
2.4123718
1.8941647
2.0533567
3.1936561
4.2141896
4.3356789
3.7434664
2.7764219
1.7733932
0.98895005
0.50351826
0.24145872
0.11048086
0.048167435
0.019769558
0.007467892
0.0025043451
0.00071564184
0.00021637889
0.00032780538
0.0023465198
0.1112997
0.13512196
0.21170226
0.4966854
1.2007243
2.1593174
2.9953485
3.3273323
3.0329457
2.4064814
1.8892836
2.0483293
3.1858092
4.2012569
4.3200543
3.7279943
2.7635126
1.7641864
0.98349249
0.50066668
0.24008198
0.10985199
0.047894612
0.019658281
0.0074261668
0.0024905053
0.00071182746
0.00021552469
0.00032726217
0.0023427153
0.11123979
0.1349561
0.21096196
0.49360021
1.1937014
2.1494297
2.9847844
3.3179282
3.0253155
2.400478
1.8843345
2.0433808
3.1781949
4.188556
4.3045412
3.7125172
2.7505365
1.754907
0.97798421
0.49778658
0.23869091
0.10921633
0.047618735
0.019545704
0.0073839304
0.0024764862
0.00070795726
0.00021464543
0.00032665943
0.0023384676
0.11117852
0.13478949
0.21022573
0.49053609
1.1867116
2.1395669
2.9742499
3.3085165
3.0176385
2.3944064
1.8793453
2.0384946
3.1707618
4.1760414
4.2891236
3.6970433
2.7375084
1.7455613
0.97242455
0.49487521
0.23728322
0.1085726
0.047339199
0.019431587
0.0073411014
0.0024622651
0.0007040273
0.00021374381
0.00032601166
0.0023338907
0.11111599
0.1346222
0.20949342
0.48749094
1.1797516
2.1297274
2.96374
3.2991031
3.0099307
2.3882905
1.8743311
2.0336574
3.1634644
4.1636679
4.2737887
3.6815919
2.7244654
1.7361877
0.96684134
0.4919488
0.23586727
0.10792474
0.047057755
0.019316654
0.0072979548
0.0024479351
0.00070006532
0.00021283103
0.00032534261
0.0023291527
0.11105223
0.13445418
0.20876484
0.48446323
1.1728191
2.1199098
2.9532513
3.289691
3.0022051
2.3821453
1.8693021
2.02886
3.1562703
4.1514035
4.2585271
3.6661768
2.7114341
1.7268148
0.96125576
0.48902009
0.23444976
0.10727601
0.046775877
0.019201525
0.0072547287
0.0024335766
0.00069609387
0.00021191231
0.0003246561
0.0023242811
0.11098726
0.13428538
0.20803974
0.48145192
1.1659126
2.1101131
2.9427809
3.2802813
2.9944692
2.375981
1.864265
2.0240953
3.1491566
4.139226
4.2433324
3.6508061
2.6984295
1.7174573
0.9556777
0.48609443
0.23303333
0.10662761
0.046494087
0.019086413
0.0072115038
0.0024192168
0.00069212101
0.00021099081
0.0003239587
0.0023193229
0.11092106
0.13411577
0.20731791
0.4784562
1.159031
2.1003364
2.9323268
3.2708754
2.9867276
2.3698041
1.859224
2.0193588
3.1421069
4.1271197
4.2281997
3.6354855
2.6854636
1.7081281
0.95011697
0.4831778
0.23162115
0.10598109
0.046213089
0.018971617
0.0071683946
0.0024048945
0.00068815781
0.00021006951
0.00032325399
0.0023143041
0.11085365
0.13394528
0.20659915
0.47547544
1.1521734
2.0905792
2.9218876
3.2614738
2.9789834
2.363619
1.8541821
2.0146471
3.1351102
4.1150735
4.2131254
3.6202184
2.6725433
1.6988341
0.94457813
0.48027269
0.23021444
0.10533701
0.045933122
0.018857232
0.0071254369
0.0023906217
0.00068420762
0.00020914951
0.00032254395
0.0023092389
0.11078499
0.13377388
0.20588329
0.47250913
1.1453393
2.080841
2.9114619
3.252076
2.9712377
2.3574289
1.8491413
2.0099576
3.1281581
4.1030792
4.1981063
3.6050074
2.6596741
1.6895814
0.9390658
0.47738197
0.22881473
0.10469612
0.045654533
0.018743406
0.0070826875
0.0023764178
0.0006802761
0.00020823262
0.00032183149
0.0023041486
0.11071509
0.13360152
0.20517017
0.46955684
1.1385282
2.0711216
2.9010489
3.2426824
2.9634916
2.3512358
1.844103
2.0052883
3.1212455
4.0911318
4.1831408
3.5898536
2.6468583
1.6803719
0.93358106
0.47450602
0.22742216
0.10405845
0.045377322
0.018630134
0.0070401446
0.0023622819
0.00067636308
0.000207319
0.0003211175
0.0022990399
0.11064392
0.13342818
0.20445964
0.46661821
1.1317396
2.0614205
2.8906478
3.2332932
2.9557456
2.3450414
1.8390681
2.0006377
3.1143676
4.0792268
4.1682276
3.5747585
2.6340995
1.6712097
0.92812717
0.47164696
0.22603788
0.10342459
0.045101759
0.018517534
0.0069978528
0.0023482293
0.00067247284
0.00020640979
0.00032040327
0.0022939223
0.11057147
0.1332538
0.20375154
0.46369292
1.1249734
2.0517376
2.8802581
3.2239078
2.9480004
2.3388467
1.8340375
1.9960048
3.1075208
4.0673611
4.1533653
3.5597228
2.6213989
1.662096
0.9227047
0.46880496
0.22466192
0.10279452
0.044827831
0.018405596
0.0069558078
0.0023342581
0.00066860482
0.00020550483
0.00031968873
0.0022887957
0.11049772
0.13307837
0.20304577
0.46078069
1.1182293
2.0420728
2.8698792
3.2145262
2.9402564
2.3326528
1.8290114
1.9913889
3.1007028
4.055532
4.1385527
3.5447466
2.6087577
1.6530323
0.91731506
0.46598102
0.22329485
0.10216854
0.04455568
0.018294383
0.0069140343
0.0023203769
0.00066476153
0.00020460495
0.00031897534
0.0022836709
0.11042267
0.13290186
0.20234221
0.45788128
1.111507
2.0324258
2.8595109
3.2051489
2.9325143
2.3264599
1.8239903
1.9867895
3.0939124
4.0437388
4.1237893
3.5298297
2.5961754
1.6440176
0.91195709
0.46317419
0.22193612
0.10154635
0.044285163
0.018183832
0.0068725077
0.0023065774
0.00066094061
0.00020370963
0.00031826283
0.0022785461
0.11034629
0.13272423
0.20164077
0.45499443
1.1048065
2.0227967
2.8491527
3.1957753
2.9247745
2.3202686
1.8189744
1.9822059
3.0871484
4.03198
4.1090748
3.5149725
2.5836532
1.6350536
0.90663235
0.46038563
0.22058641
0.10092831
0.044016453
0.018074018
0.0068312579
0.0022928697
0.00065714493
0.00020281956
0.00031755176
0.0022734257
0.11026858
0.13254547
0.20094133
0.45211993
1.0981276
2.0131853
2.8388045
3.1864053
2.9170372
2.314079
1.8139637
1.9776375
3.0804093
4.0202546
4.0944087
3.5001749
2.5711909
1.6261398
0.90134031
0.45761489
0.21924541
0.10031426
0.043749468
0.017964905
0.0067902701
0.0022792486
0.00065337294
0.00020193427
0.00031684157
0.0022683061
0.11018953
0.13236555
0.2002438
0.4492576
1.0914701
2.0035916
2.8284661
3.1770395
2.9093018
2.3078916
1.8089584
1.9730837
3.0736932
4.008561
4.07979
3.4854372
2.5587897
1.6172778
0.89608229
0.45486291
0.21791368
0.099704492
0.043484346
0.017856554
0.0067495676
0.0022657222
0.00064962699
0.00020105454
0.00031613365
0.0022631976
0.11010912
0.13218445
0.19954809
0.44640724
1.0848341
1.9940155
2.8181375
3.1676776
2.9015685
2.3017064
1.8039586
1.9685445
3.0669995
3.9968988
4.0652187
3.4707591
2.5464487
1.6084662
0.89085689
0.45212861
0.21659058
0.099098648
0.043220917
0.017748887
0.0067091208
0.0022522802
0.00064590416
0.00020017968
0.00031542747
0.0022580966
0.11002735
0.13200216
0.19885412
0.44356868
1.0782194
1.9844571
2.8078183
3.1583191
2.8938373
2.2955236
1.7989644
1.9640195
3.0603277
3.9852672
4.0506946
3.4561409
2.5341689
1.5997064
0.88566556
0.44941305
0.21527672
0.098497071
0.042959344
0.017641979
0.006668958
0.0022389323
0.00064220718
0.00019931028
0.00031472334
0.0022530058
0.10994421
0.13181865
0.19816183
0.44074174
1.0716259
1.9749162
2.7975086
3.1489646
2.8861084
2.2893435
1.7939758
1.9595085
3.0536776
3.9736664
4.0362175
3.4415819
2.5219492
1.5909971
0.88050702
0.44671534
0.21397161
0.09789949
0.042699501
0.017535773
0.0066290574
0.0022256711
0.00063853384
0.00019844567
0.00031402027
0.0022479182
0.10985969
0.1316339
0.19747112
0.43792626
1.0650536
1.965393
2.7872082
3.139614
2.8783823
2.2831662
1.7889928
1.9550112
3.0470483
3.9620958
4.0217868
3.427082
2.5097897
1.5823388
0.8753819
0.44403605
0.2126756
0.097306117
0.042441491
0.017430316
0.006589438
0.0022125031
0.00063488612
0.00019758654
0.00031331957
0.0022428436
0.10977379
0.13144791
0.19678192
0.43512208
1.0585026
1.9558873
2.7769171
3.1302668
2.8706594
2.2769916
1.7840154
1.9505272
3.0404392
3.9505553
4.0074025
3.4126408
2.4976893
1.5737296
0.87028851
0.4413739
0.21138796
0.096716553
0.042185125
0.017325526
0.0065500672
0.0021994172
0.00063126085
0.00019673214
0.00031262072
0.0022377785
0.1096865
0.13126065
0.19609415
0.43232908
1.0519725
1.9463993
2.7666353
3.1209238
2.8629395
2.2708199
1.7790435
1.9460564
3.0338497
3.939044
3.9930644
3.3982587
2.4856494
1.5651716
0.86522863
0.4387302
0.21010942
0.096131196
0.041930592
0.017221485
0.0065109771
0.0021864242
0.00062766107
0.00019588316
0.00031192418
0.0022327266
0.10959781
0.13107212
0.19540776
0.42954709
1.0454636
1.9369289
2.7563628
3.1115851
2.8552223
2.264651
1.7740773
1.9415986
3.0272794
3.9275619
3.9787725
3.3839355
2.4736694
1.5566637
0.86020127
0.43610419
0.20883955
0.095549798
0.041677771
0.017118138
0.0064721462
0.0021735166
0.00062408453
0.00019503888
0.00031122884
0.00222768
0.10950774
0.13088229
0.19472269
0.42677599
1.0389758
1.9274763
2.7460996
3.1022501
2.8475079
2.2584852
1.7691168
1.9371534
3.020728
3.9161086
3.9645262
3.3696708
2.4617491
1.5482063
0.855207
0.43349641
0.20757869
0.094972569
0.041426767
0.017015535
0.0064335942
0.0021607014
0.00062053331
0.0001942
0.00031053593
0.0022226479
0.10941627
0.13069115
0.19403888
0.42401564
1.032509
1.9180414
2.7358457
3.0929193
2.8397964
2.2523226
1.7641619
1.9327208
3.014195
3.9046841
3.9503253
3.3554637
2.449887
1.5397972
0.85024386
0.43090544
0.20632603
0.094399075
0.041177376
0.016913585
0.0063952857
0.0021479666
0.00061700401
0.00019336571
0.00030984482
0.0022176261
0.1093234
0.13049871
0.19335626
0.42126592
1.0260633
1.9086243
2.7256012
3.0835931
2.8320881
2.2461635
1.7592128
1.9283005
3.0076794
3.8932876
3.9361696
3.3413148
2.4380844
1.5314382
0.84531345
0.42833245
0.20508224
0.09382968
0.04092977
0.016812364
0.0063572506
0.0021353222
0.00061349945
0.00019253661
0.00030915583
0.0022126171
0.10922914
0.13030497
0.19267477
0.41852673
1.0196386
1.8992252
2.715366
3.0742709
2.8243836
2.2400078
1.7542693
1.9238922
3.0011812
3.8819192
3.9220589
3.3272235
2.42634
1.5231279
0.84041448
0.42577652
0.2038468
0.093264094
0.040683811
0.016711812
0.0063194646
0.0021227599
0.00061001717
0.00019171195
0.00030846779
0.0022076128
0.10913349
0.13010991
0.19199437
0.41579794
1.013235
1.889844
2.7051403
3.0649534
2.8166833
2.2338556
1.7493315
1.9194959
2.9947002
3.8705787
3.907993
3.3131894
2.4146539
1.5148667
0.83554757
0.42323825
0.20262009
0.092702554
0.040439618
0.016611981
0.0062819494
0.0021102872
0.00060655944
0.00019089253
0.00030778223
0.0022026243
0.10903644
0.12991352
0.19131502
0.41307946
1.0068524
1.8804809
2.6949241
3.0556409
2.8089868
2.2277071
1.7443994
1.9151112
2.9882362
3.8592664
3.8939716
3.2992116
2.4030245
1.5066522
0.83071067
0.42071614
0.20140126
0.092144595
0.040196969
0.016512777
0.0062446673
0.0020978913
0.00060312261
0.00019007747
0.00030709843
0.0021976466
0.10893802
0.1297158
0.19063669
0.41037118
1.0004909
1.871136
2.6847177
3.0463331
2.8012942
2.2215624
1.7394731
1.9107378
2.9817881
3.847981
3.8799943
3.2852908
2.3914532
1.4984866
0.82590567
0.41821156
0.20019109
0.091590642
0.039956068
0.016414287
0.0062076533
0.0020855841
0.00059971003
0.00018926751
0.0003064168
0.002192683
0.10883821
0.12951676
0.18995932
0.40767301
0.99415055
1.8618094
2.6745209
3.0370306
2.7936056
2.2154218
1.7345526
1.9063757
2.9753551
3.8367222
3.8660609
3.2714265
2.379939
1.4903685
0.82113128
0.41572356
0.19898901
0.091040384
0.039716763
0.016316444
0.0061708804
0.0020733562
0.0005963189
0.00018846174
0.00030573593
0.0021877237
0.10873704
0.12931638
0.18928287
0.40498489
0.98783132
1.8525012
2.6643341
3.0277336
2.7859212
2.2092856
1.7296381
1.9020246
2.9689369
3.8254897
3.852171
3.2576182
2.368482
1.4822986
0.81638834
0.41325286
0.1977955
0.090494096
0.039479191
0.016219311
0.0061343735
0.0020612163
0.00059295178
0.00018766105
0.00030505742
0.0021827803
0.10863451
0.12911469
0.1886073
0.40230673
0.98153331
1.8432116
2.6541573
3.0184419
2.7782417
2.2031538
1.7247295
1.8976843
2.9625338
3.814284
3.8383245
3.243865
2.3570803
1.4742741
0.81167439
0.41079772
0.19660954
0.089951228
0.039243091
0.016122772
0.0060980876
0.002049149
0.00058960435
0.00018686438
0.00030438031
0.002177846
0.10853064
0.12891167
0.18793259
0.39963846
0.97525655
1.8339407
2.6439905
3.0091561
2.7705679
2.1970268
1.7198267
1.8933546
2.9561453
3.8031045
3.824521
3.2301672
2.345735
1.4662968
0.80699118
0.40835946
0.19543193
0.089412231
0.039008681
0.016026925
0.0060620615
0.0020371676
0.00058628039
0.00018607259
0.0003037052
0.0021729252
0.10842543
0.12870735
0.18725873
0.39698002
0.96900111
1.8246886
2.6338342
2.9998767
2.7628998
2.1909045
1.7149297
1.8890351
2.9497705
3.7919508
3.8107601
3.2165243
2.3344449
1.4583654
0.80233743
0.40593714
0.1942621
0.088876784
0.038775806
0.015931701
0.0060262672
0.0020252625
0.000582977
0.00018528479
0.00030303072
0.0021680085
0.1083189
0.12850172
0.1865857
0.39433135
0.9627671
1.8154556
2.6236884
2.9906036
2.755237
2.1847874
1.7100385
1.8847255
2.9434083
3.7808217
3.7970414
3.2029361
2.3232108
1.4504809
0.79771433
0.4035317
0.19310064
0.088345222
0.03854463
0.015837172
0.0059907343
0.002013444
0.00057969727
0.00018450204
0.00030235882
0.0021631099
0.10821106
0.1282948
0.18591346
0.39169241
0.95655452
1.8062418
2.6135533
2.9813373
2.7475801
2.1786757
1.7051523
1.8804258
2.937059
3.7697177
3.7833648
3.1894016
2.3120305
1.4426406
0.79311932
0.4011413
0.19194646
0.08781696
0.038314872
0.015743217
0.005955414
0.0020016952
0.00057643645
0.00018372317
0.00030168843
0.0021582221
0.10810194
0.12808659
0.18524198
0.38906315
0.95036351
1.7970475
2.6034291
2.9720781
2.7399292
2.1725697
1.7002715
1.8761356
2.9307219
3.7586381
3.7697297
3.1759211
2.3009054
1.4348466
0.78855442
0.39876742
0.19080046
0.087292486
0.038086769
0.015649939
0.005920348
0.0019900305
0.00057319855
0.00018294905
0.00030101995
0.0021533478
0.10799155
0.12787712
0.18457127
0.38644355
0.94419417
1.7878726
2.5933161
2.9628261
2.7322849
2.1664698
1.6953971
1.8718547
2.9243968
3.7475828
3.7561357
3.1624938
2.2898338
1.4270968
0.78401784
0.39640882
0.18966191
0.086771405
0.037860132
0.015557255
0.0058855029
0.0019784384
0.00056998018
0.00018217861
0.00030035172
0.0021484755
0.10787991
0.12766639
0.18390131
0.38383357
0.93804656
1.7787176
2.5832143
2.9535819
2.7246483
2.1603762
1.6905288
1.8675827
2.9180827
3.7365509
3.7425824
3.1491191
2.2788159
1.4193919
0.77951056
0.39406637
0.18853137
0.086254052
0.037635127
0.015465241
0.0058509099
0.0019669298
0.00056678461
0.00018141297
0.00029968579
0.0021436199
0.10776705
0.12745443
0.18323212
0.3812332
0.93192087
1.7695826
2.5731243
2.9443459
2.7170195
2.1542893
1.6856667
1.8633194
2.9117795
3.7255428
3.7290695
3.1357962
2.2678498
1.4117295
0.77503022
0.39173833
0.18740782
0.085739864
0.037411484
0.015373777
0.0058165212
0.0019554881
0.00056360715
0.00018065103
0.00029902125
0.0021387745
0.10765298
0.12724124
0.18256369
0.37864242
0.92581715
1.7604678
2.5630461
2.9351183
2.7093984
2.1482092
1.6808105
1.8590643
2.9054859
3.7145571
3.7155963
3.1225254
2.2569372
1.4041119
0.77057909
0.38942633
0.1862922
0.085229356
0.037189449
0.015282972
0.0057823796
0.0019441282
0.00056045195
0.00017989369
0.00029835862
0.0021339433
0.10753775
0.12702687
0.181896
0.37606125
0.91973558
1.7513734
2.55298
2.9258998
2.7017852
2.1421364
1.6759605
1.8548172
2.8992019
3.7035937
3.7021623
3.1093059
2.2460765
1.3965374
0.76615545
0.38712916
0.18518381
0.084722146
0.036968838
0.015192744
0.0057484528
0.0019328387
0.00055731567
0.00017913991
0.00029769629
0.0021291148
0.10742136
0.12681132
0.18122907
0.37348968
0.9136763
1.7422997
2.5429264
2.9166905
2.6941805
2.1360713
1.6711173
1.8505778
2.8929265
3.6926515
3.6887668
3.0961372
2.2352677
1.3890063
0.76176012
0.38484757
0.18408316
0.084218528
0.0367498
0.01510316
0.0057147683
0.0019216295
0.00055420131
0.00017839074
0.00029703621
0.0021243032
0.10730386
0.12659462
0.18056303
0.37092945
0.9076387
1.7332469
2.5328853
2.9074907
2.6865848
2.1300143
1.666281
1.8463457
2.8866593
3.6817307
3.6754096
3.0830179
2.2245085
1.3815158
0.75739046
0.38257967
0.18298913
0.083717907
0.036532051
0.015014098
0.0056812772
0.0019104838
0.00055110408
0.00017764506
0.00029637743
0.0021195015
0.10718526
0.1263768
0.17989813
0.36838333
0.9016218
1.7242153
2.5228572
2.8983011
2.6789993
2.1239656
1.6614513
1.8421207
2.8803996
3.6708305
3.6620901
3.0699486
2.2138006
1.3740681
0.75304869
0.38032709
0.18190268
0.083220805
0.036315841
0.014925666
0.005648023
0.0018994165
0.00054802823
0.00017690381
0.00029572056
0.0021147145
0.10706561
0.12615788
0.17923437
0.36585135
0.89562568
1.7152051
2.5128423
2.8891221
2.6714241
2.1179255
1.6566284
1.8379024
2.874147
3.6599504
3.6488076
3.0569283
2.2031427
1.3666619
0.74873346
0.37808883
0.18082321
0.082726888
0.036101007
0.014837792
0.0056149764
0.0018884172
0.00054497069
0.00017616603
0.00029506409
0.0021099314
0.10694494
0.1259379
0.17857175
0.36333358
0.88965055
1.7062166
2.5028409
2.8799539
2.663859
2.1118946
1.6518126
1.8336902
2.8679002
3.6490892
3.6355613
3.0439568
2.1925349
1.359298
0.7444457
0.37586567
0.17975124
0.082236456
0.035887701
0.014750545
0.0055821654
0.001877496
0.00054193443
0.00017543273
0.00029440977
0.0021051648
0.10682328
0.12571689
0.17791028
0.36083003
0.88369651
1.6972499
2.4928533
2.8707972
2.6563045
2.1058734
1.6470041
1.8294839
2.8616592
3.6382468
3.622351
3.0310326
2.1819751
1.3519732
0.74018277
0.37365578
0.17868569
0.081748933
0.035675644
0.014663803
0.0055495421
0.0018666363
0.00053891478
0.00017470276
0.00029375664
0.0021004077
0.10670067
0.12549487
0.17724996
0.35834079
0.87776376
1.6883054
2.4828798
2.8616522
2.6487611
2.0998621
1.6422032
1.8252831
2.8554228
3.6274221
3.6091759
3.0181561
2.1714644
1.3446897
0.73594662
0.37146057
0.17762741
0.081264779
0.035465062
0.014577666
0.0055171457
0.0018558516
0.00053591554
0.00017397698
0.0002931052
0.0020956642
0.10657715
0.1252719
0.17659082
0.35586593
0.8718525
1.6793834
2.4729206
2.8525193
2.6412297
2.0938613
1.6374097
1.8210875
2.8491905
3.6166151
3.5960353
3.005326
2.1610013
1.3374457
0.73173569
0.36927896
0.17657575
0.080783651
0.035255788
0.014492058
0.0054849467
0.0018451318
0.00053293372
0.00017325446
0.00029245402
0.0020909237
0.10645274
0.125048
0.17593289
0.3534055
0.86596288
1.670484
2.4629761
2.8433993
2.6337112
2.0878712
1.6326237
1.8168967
2.8429619
3.6058246
3.5829282
2.9925418
2.1505857
1.3302417
0.72755082
0.36711168
0.1755312
0.080305827
0.035047961
0.014407045
0.005452971
0.0018344859
0.00052997205
0.00017253618
0.00029180499
0.0020862
0.10632751
0.12482322
0.17527621
0.35095961
0.86009514
1.6616075
2.4530466
2.8342923
2.6262054
2.0818922
1.6278453
1.8127102
2.8367365
3.5950504
3.5698544
2.9798024
2.1402158
1.3230751
0.72338975
0.36495712
0.17449283
0.079830804
0.03484134
0.01432252
0.005421177
0.0018238997
0.00052702651
0.00017182119
0.00029115728
0.0020814871
0.10620148
0.12459759
0.1746208
0.3485283
0.85424942
1.6527543
2.4431324
2.8251989
2.6187124
2.0759247
1.623075
1.8085275
2.8305131
3.5842912
3.5568132
2.967108
2.1298927
1.3159481
0.71925429
0.36281661
0.17346141
0.079359008
0.034636133
0.014238574
0.0053896006
0.0018133855
0.00052410058
0.00017111024
0.00029051127
0.0020767879
0.1060747
0.12437117
0.17396667
0.34611169
0.84842594
1.6439245
2.4332338
2.8161195
2.6112327
2.0699692
1.6183128
1.8043483
2.824291
3.5735465
3.5438036
2.9544575
2.1196151
1.3088589
0.71514307
0.36068917
0.17243636
0.078890125
0.034432185
0.01415514
0.0053582148
0.0018029339
0.0005211915
0.00017040247
0.00028986565
0.002072093
0.10594722
0.124144
0.17331387
0.34370986
0.84262495
1.6351183
2.4233511
2.8070542
2.603767
2.0640261
1.6135586
1.800172
2.8180692
3.5628154
3.5308246
2.9418503
2.1093828
1.3018081
0.71105681
0.35857545
0.17141812
0.078424398
0.03422962
0.014072273
0.0053270422
0.0017925529
0.00051830167
0.00016969874
0.00028922198
0.0020674137
0.10581908
0.12391612
0.17266244
0.34132291
0.83684661
1.6263362
2.4134844
2.7980037
2.5963162
2.0580958
1.6088125
1.7959984
2.8118479
3.5520977
3.5178758
2.9292847
2.0991936
1.2947928
0.70699315
0.35647384
0.17040575
0.077961346
0.034028208
0.013989873
0.0052960437
0.0017822291
0.00051542729
0.0001689981
0.00028857938
0.0020627436
0.10569032
0.12368758
0.17201243
0.33895096
0.83109121
1.6175783
2.4036342
2.7889685
2.5888806
2.0521785
1.6040746
1.7918269
2.8056262
3.5413922
3.5049565
2.916761
2.0890483
1.2878146
0.70295362
0.35438546
0.16939994
0.077501338
0.03382813
0.013908021
0.0052652507
0.0017719733
0.00051257142
0.00016830126
0.0002879383
0.0020580861
0.105561
0.12345843
0.1713639
0.33659409
0.82535895
1.6088448
2.3938007
2.7799488
2.5814601
2.0462746
1.599345
1.7876569
2.7994031
3.5306983
3.4920658
2.9042781
2.0789455
1.2808721
0.69893695
0.35230942
0.16840016
0.077044086
0.033629245
0.013826653
0.0052346387
0.001761777
0.00050973157
0.00016760745
0.00028729762
0.002053433
0.10543117
0.12322873
0.1707169
0.33425245
0.81965005
1.600136
2.3839842
2.770945
2.5740549
2.0403846
1.5946237
1.7834879
2.7931773
3.5200148
3.4792025
2.8918354
2.0688855
1.2739659
0.69494397
0.35024641
0.16740684
0.076589837
0.033431676
0.013745826
0.0052042297
0.001751648
0.00050691006
0.00016691755
0.0002866591
0.0020487972
0.10530087
0.12299853
0.17007147
0.33192612
0.81396477
1.5914522
2.3741848
2.7619574
2.5666656
2.0345089
1.5899109
1.7793193
2.7869486
3.5093412
3.466366
2.8794315
2.0588664
1.2670937
0.6909726
0.34819498
0.16641914
0.076138141
0.033235208
0.013665444
0.0051739868
0.0017415735
0.00050410331
0.00016623067
0.00028602189
0.0020441725
0.10517017
0.12276787
0.16942766
0.32961522
0.80830332
1.5827934
2.3644028
2.7529862
2.5592928
2.0286477
1.5852065
1.7751509
2.7807163
3.4986764
3.4535556
2.8670665
2.0488888
1.2602569
0.6870243
0.34615622
0.16543773
0.075689366
0.03304002
0.013585588
0.0051439418
0.0017315645
0.00050131441
0.00016554746
0.00028538628
0.0020395609
0.10503911
0.12253682
0.16878554
0.32731989
0.80266598
1.5741601
2.3546383
2.7440319
2.5519372
2.0228014
1.5805104
1.770982
2.7744799
3.48802
3.4407707
2.8547389
2.0389508
1.2534536
0.68309748
0.34412906
0.16446198
0.075243185
0.032845957
0.01350619
0.0051140674
0.0017216118
0.00049854061
0.00016486706
0.00028475081
0.002034952
0.10490775
0.12230542
0.16814518
0.32504025
0.79705301
1.5655524
2.3448916
2.7350947
2.5445986
2.0169701
1.5758227
1.7668118
2.7682381
3.4773709
3.4280098
2.8424481
2.0290525
1.2466842
0.6791929
0.34211417
0.16349233
0.074799843
0.032653141
0.013427304
0.0050843862
0.0017117231
0.00049578433
0.00016419038
0.00028411737
0.0020303594
0.10477614
0.12207373
0.16750665
0.32277645
0.79146467
1.5569705
2.3351629
2.7261749
2.537277
2.0111544
1.5711433
1.76264
2.7619904
3.4667284
3.415272
2.8301928
2.0191922
1.2399467
0.67530866
0.34011016
0.16252796
0.074358901
0.032461359
0.013348838
0.0050548609
0.0017018857
0.00049304191
0.00016351655
0.00028348519
0.0020257777
0.10464433
0.12184181
0.16687004
0.3205286
0.7859012
1.5484146
2.3254523
2.7172726
2.5299727
2.0053544
1.5664723
1.7584657
2.7557355
3.4560909
3.4025567
2.8179733
2.009371
1.2332429
0.67144648
0.33811829
0.16156962
0.073920763
0.032270807
0.013270876
0.0050255256
0.0016921112
0.00049031667
0.0001628463
0.00028285473
0.0020212101
0.10451237
0.12160972
0.16623539
0.31829682
0.78036283
1.5398848
2.3157599
2.7083879
2.5226863
1.9995704
1.5618094
1.7542885
2.749473
3.4454579
3.3898632
2.805788
1.9995872
1.2265709
0.66760476
0.33613749
0.16061669
0.0734851
0.032081326
0.013193351
0.004996353
0.0016823902
0.00048760582
0.00016217874
0.00028222443
0.0020166455
0.10438033
0.12137751
0.16560279
0.31608127
0.77484988
1.5313814
2.3060857
2.6995212
2.5154183
1.9938027
1.5571546
1.7501077
2.7432021
3.4348287
3.3771902
2.7936361
1.9898401
1.2199308
0.66378398
0.33416828
0.15966953
0.073052135
0.031893034
0.013116314
0.0049673649
0.0016727305
0.00048491174
0.00016151476
0.0002815961
0.0020120967
0.10424826
0.12114523
0.16497231
0.31388206
0.76936258
1.5229046
2.2964299
2.6906724
2.5081685
1.9880515
1.5525079
1.7459228
2.7369224
3.4242029
3.3645368
2.7815158
1.9801275
1.2133199
0.65998186
0.33220905
0.15872722
0.072621364
0.031705687
0.013039661
0.0049385194
0.0016631176
0.00048223032
0.00016085336
0.00028096887
0.0020075576
0.10411621
0.12091295
0.16434403
0.31169935
0.76390121
1.5144545
2.2867927
2.6818418
2.5009368
1.9823169
1.547869
1.7417329
2.7306326
3.4135787
3.351902
2.7694277
1.9704509
1.2067403
0.65620038
0.3302612
0.15779055
0.072193224
0.031519494
0.012963482
0.0049098528
0.001653564
0.00047956512
0.00016019538
0.00028034343
0.0020030332
0.10398424
0.12068073
0.16371805
0.30953328
0.75846607
1.5060312
2.2771739
2.6730293
2.4937232
1.9765992
1.5432378
1.7375373
2.7243316
3.4029552
3.3392851
2.7573707
1.9608092
1.2001908
0.65243827
0.32832382
0.156859
0.071767423
0.031334314
0.012887714
0.0048813396
0.0016440609
0.00047691348
0.00015953995
0.00027971831
0.0019985129
0.10385241
0.12044861
0.16309447
0.30738396
0.75305739
1.497635
2.2675736
2.6642348
2.4865282
1.9708987
1.5386141
1.7333355
2.7180187
3.3923314
3.3266852
2.7453439
1.9512019
1.1936715
0.64869617
0.32639754
0.155933
0.071344214
0.031150277
0.012812418
0.0048530042
0.0016346169
0.00047427803
0.00015888802
0.00027909524
0.001994009
0.10372077
0.12021665
0.16247338
0.30525156
0.74767546
1.4892659
2.2579919
2.6554585
2.479352
1.9652153
1.5339977
1.7291266
2.7116937
3.3817073
3.3141013
2.7333454
1.9416264
1.1871795
0.64497159
0.32448065
0.15501156
0.070923077
0.030967133
0.012737484
0.0048248037
0.0016252173
0.00047165456
0.00015823852
0.00027847321
0.0019895143
0.10358938
0.11998492
0.16185485
0.30313619
0.74232055
1.480924
2.2484285
2.6467002
2.4721944
1.9595491
1.5293884
1.72491
2.7053555
3.3710816
3.3015323
2.7213752
1.9320837
1.1807166
0.6412662
0.32257439
0.1540954
0.070504408
0.030785074
0.012662997
0.0047967718
0.0016158736
0.00046904642
0.00015759226
0.00027785286
0.0019850336
0.10345831
0.11975348
0.16123898
0.301038
0.73699292
1.4726095
2.2388836
2.6379599
2.4650551
1.9539005
1.524786
1.7206849
2.6990031
3.3604531
3.2889772
2.7094324
1.9225724
1.1742812
0.63757871
0.32067781
0.15318399
0.070087905
0.030603952
0.01258889
0.0047688818
0.0016065767
0.00046645082
0.00015694835
0.0002772327
0.0019805561
0.10332761
0.11952237
0.16062586
0.29895714
0.73169285
1.4643226
2.2293571
2.6292374
2.457934
1.9482694
1.5201902
1.7164505
2.6926355
3.3498203
3.2764353
2.6975164
1.9130928
1.1678741
0.63390993
0.31879163
0.15227776
0.069673826
0.030423898
0.012515224
0.0047411579
0.0015973349
0.00046387038
0.00015630775
0.0002766147
0.0019760958
0.10319734
0.11929166
0.1600156
0.29689372
0.72642063
1.4560633
2.2198487
2.6205324
2.4508312
1.942656
1.5156007
1.712206
2.6862522
3.3391836
3.2639059
2.6856255
1.9036424
1.1614923
0.63025748
0.31691419
0.15137577
0.069261668
0.030244671
0.012441892
0.0047135586
0.0015881341
0.00046130104
0.00015566948
0.00027599788
0.0019716458
0.10306756
0.11906139
0.1594083
0.2948479
0.72117655
1.4478316
2.2103585
2.6118449
2.4437467
1.9370602
1.5110171
1.7079507
2.6798525
3.3285418
3.2513878
2.6737596
1.8942221
1.1551375
0.62662301
0.31504673
0.15047875
0.068851835
0.030066468
0.012368982
0.0046861188
0.0015789863
0.00045874621
0.0001550343
0.00027538276
0.0019672096
0.10293833
0.11883164
0.15880408
0.2928198
0.71596085
1.4396279
2.2008863
2.6031746
2.4366803
1.9314821
1.5064393
1.7036837
2.6734356
3.3178939
3.2388801
2.6619175
1.8848303
1.1488082
0.62300512
0.31318826
0.14958614
0.068444017
0.029889138
0.012296427
0.0046588113
0.001569882
0.00045620308
0.00015440131
0.00027476788
0.001962777
0.10280972
0.11860246
0.15820304
0.29080953
0.71077383
1.431452
2.191432
2.5945212
2.4296315
1.9259217
1.5018667
1.6994041
2.6670005
3.3072384
3.2263817
2.6500989
1.8754673
1.142505
0.61940473
0.31133954
0.1486984
0.06803848
0.029712813
0.012224288
0.0046316606
0.0015608298
0.00045367426
0.00015377148
0.00027415513
0.0019583614
0.10268177
0.1183739
0.15760528
0.28881723
0.70561574
1.4233041
2.1819953
2.5858843
2.4225999
1.9203791
1.4972991
1.6951114
2.6605466
3.2965752
3.2138925
2.6383021
1.8661309
1.1362254
0.61581959
0.30949901
0.14781463
0.06763474
0.029537261
0.01215246
0.0046046258
0.0015518157
0.00045115572
0.00015314378
0.00027354345
0.0019539552
0.10255456
0.11814603
0.1570109
0.28684298
0.70048683
1.4151843
2.1725762
2.5772636
2.4155855
1.9148541
1.4927358
1.6908046
2.6540732
3.2859035
3.2014112
2.6265272
1.8568219
1.129971
0.61225123
0.3076678
0.14693552
0.067233174
0.029362666
0.012081027
0.00457774
0.0015428511
0.00044865073
0.00015251898
0.00027293344
0.0019495627
0.10242815
0.1179189
0.15642002
0.28488692
0.6953874
1.4070927
2.1631744
2.5686588
2.408588
1.9093469
1.4881765
1.6864831
2.6475799
3.2752227
3.1889369
2.6147728
1.8475388
1.1237399
0.60869826
0.30584495
0.1460605
0.066833483
0.029188884
0.012009924
0.0045509774
0.001533927
0.00044615663
0.00015189622
0.00027232367