/*--------------------------------*- C++ -*----------------------------------*\
| =========                 |                                                 |
| \\      /  F ield         | OpenFOAM: The Open Source CFD Toolbox           |
|  \\    /   O peration     | Version:  v2012                                 |
|   \\  /    A nd           | Website:  www.openfoam.com                      |
|    \\/     M anipulation  |                                                 |
\*---------------------------------------------------------------------------*/
FoamFile
{
    version     2.0;
    format      ascii;
    class       volScalarField;
    location    "650";
    object      Ma;
}
// * * * * * * * * * * * * * * * * * * * * * * * * * * * * * * * * * * * * * //

dimensions      [0 0 0 0 0 0 0];


internalField   nonuniform List<scalar> 
24000
(
0.044726701
0.045042188
0.04606413
0.047579497
0.048282159
0.047450152
0.04581612
0.044086145
0.042353184
0.040486968
0.038158546
0.034948296
0.03120412
0.027465402
0.023746167
0.020128258
0.016820386
0.013895823
0.011364542
0.0092158715
0.007415964
0.0059156609
0.0046662688
0.0036254748
0.0027580013
0.002034709
0.0014315114
0.00092844484
0.00050892677
0.00015915672
0.044706466
0.045022615
0.046046281
0.047565757
0.04827601
0.047446783
0.045808105
0.044071033
0.042332152
0.040461961
0.038131404
0.034920624
0.03117715
0.027437924
0.023717905
0.020100411
0.016793286
0.01386956
0.011339341
0.0091920575
0.0073939407
0.0058958442
0.0046489936
0.0036109231
0.0027461952
0.0020255385
0.0014247812
0.00092391931
0.00050636209
0.00015832466
0.044688177
0.045002299
0.046019407
0.047533192
0.048248814
0.047424467
0.045785534
0.044046624
0.042306546
0.040435834
0.038105196
0.034894883
0.031153101
0.027414878
0.023695818
0.020080732
0.016776962
0.013856948
0.011330467
0.0091865927
0.0073912033
0.0058950416
0.0046494077
0.0036119831
0.0027474923
0.0020268039
0.0014258549
0.00092471704
0.00050684822
0.00015849261
0.044668955
0.044981578
0.045994488
0.04750612
0.048228047
0.047407742
0.04576713
0.044024688
0.042281883
0.040409389
0.038077641
0.034866948
0.031126361
0.027388977
0.023670989
0.020058642
0.016758243
0.013841546
0.011318067
0.0091767555
0.007383437
0.0058889268
0.0046446221
0.0036082824
0.0027446855
0.0020247364
0.0014244002
0.00092377145
0.00050632706
0.00015832802
0.044649525
0.044960678
0.04596961
0.047479325
0.048207446
0.047391151
0.045748574
0.044002449
0.042256728
0.04038235
0.038049403
0.034838184
0.031098718
0.027362253
0.023645416
0.02003583
0.016738813
0.013825467
0.0113051
0.0091665306
0.0073754737
0.0058827755
0.0046399085
0.0036047121
0.0027420273
0.00202281
0.0014230639
0.00092291431
0.00050586096
0.00015818326
0.044629934
0.044939747
0.045945056
0.047453139
0.048187511
0.047375254
0.045730523
0.043980452
0.042231672
0.040355272
0.038020934
0.034808961
0.031070473
0.027334881
0.023619141
0.020012284
0.016718648
0.013808679
0.011291476
0.0091557064
0.0073669763
0.0058761612
0.0046348054
0.0036008229
0.0027391163
0.0020206918
0.00142159
0.00092196639
0.00050534438
0.00015802241
0.044610271
0.044918828
0.045920699
0.047427248
0.048167849
0.047359654
0.045712624
0.043958529
0.042206631
0.040328135
0.037992287
0.034779396
0.031041781
0.027307035
0.023592371
0.019988212
0.016697959
0.013791394
0.011277398
0.0091444755
0.0073581221
0.0058692387
0.0046294423
0.0035967189
0.0027360332
0.002018441
0.0014200195
0.000920954
0.00050479188
0.00015785019
0.044590578
0.044897942
0.045896485
0.04740153
0.048148353
0.04734429
0.045694912
0.043936729
0.042181628
0.040300988
0.037963536
0.034749606
0.031012798
0.027278863
0.023565258
0.019963786
0.016676921
0.01377378
0.011263023
0.009132982
0.0073490429
0.005862128
0.0046239237
0.0035924903
0.0027328537
0.0020161172
0.001418397
0.00091990763
0.00050422073
0.00015767212
0.044570878
0.044877093
0.045872362
0.04737593
0.048128956
0.047329061
0.04567728
0.043914991
0.042156652
0.040273832
0.037934714
0.034719652
0.030983612
0.027250466
0.023537903
0.019939123
0.016655651
0.013755948
0.011248441
0.0091213058
0.0073398043
0.005854881
0.0046182911
0.0035881689
0.0027296001
0.0020137367
0.0014167334
0.00091883409
0.0005036345
0.00015748927
0.044551183
0.044856275
0.045848312
0.047350398
0.048109613
0.047313932
0.045659752
0.043893289
0.042131708
0.040246673
0.037905839
0.034689585
0.030954268
0.027221905
0.023510379
0.01991429
0.016634217
0.013737962
0.011233717
0.0091095014
0.0073304564
0.0058475386
0.0046125798
0.003583783
0.0027262956
0.0020113176
0.0014150421
0.00091774227
0.00050303815
0.00015730324
0.044531497
0.044835488
0.045824336
0.047324908
0.048090293
0.047298881
0.045642274
0.043871646
0.042106798
0.040219512
0.037876923
0.034659439
0.030924807
0.027193238
0.023482749
0.019889344
0.016612674
0.013719872
0.011218896
0.009097612
0.0073210327
0.005840132
0.0046068139
0.0035793526
0.0027229563
0.0020088721
0.0014133314
0.00091663764
0.00050243464
0.00015711495
0.044511823
0.044814727
0.045800424
0.047299452
0.048070991
0.047283876
0.045624865
0.043850055
0.042081907
0.040192354
0.037847978
0.034629226
0.030895259
0.02716449
0.023455052
0.019864328
0.016591058
0.013701712
0.011204014
0.0090856631
0.0073115545
0.0058326786
0.0046010071
0.0035748883
0.0027195899
0.0020064059
0.0014116056
0.0009155232
0.00050182557
0.00015692489
0.044492159
0.044793987
0.045776557
0.047273995
0.048051682
0.047268928
0.045607505
0.043828487
0.042057038
0.040165202
0.037819015
0.034598961
0.030865665
0.02713569
0.023427304
0.019839272
0.016569401
0.013683512
0.0111891
0.0090736837
0.007302046
0.0058251985
0.0045951774
0.0035704049
0.0027162082
0.002003928
0.0014098716
0.00091440311
0.00050121331
0.00015673383
0.044472504
0.044773255
0.045752712
0.047248559
0.048032374
0.047254014
0.045590193
0.043806952
0.042032188
0.040138059
0.037790044
0.034568653
0.030836029
0.02710685
0.023399522
0.019814191
0.016547723
0.013665289
0.01117416
0.0090616804
0.0072925156
0.0058176976
0.004589331
0.0035659075
0.0027128144
0.002001441
0.0014081308
0.0009132786
0.00050059854
0.00015654199
0.044452856
0.04475254
0.045728893
0.047223121
0.048013054
0.047239138
0.045572937
0.043785483
0.04200736
0.040110926
0.037761065
0.03453832
0.030806357
0.027077987
0.023371727
0.019789097
0.016526037
0.013647064
0.011159211
0.0090496676
0.007282976
0.0058101879
0.0045834761
0.0035614027
0.0027094143
0.001998949
0.0014063866
0.00091215163
0.00049998243
0.00015634973
0.044433213
0.044731838
0.045705116
0.04719769
0.04799372
0.047224298
0.045555718
0.043764035
0.041982554
0.040083807
0.037732079
0.03450797
0.030776655
0.027049113
0.02334394
0.019764007
0.016504354
0.013628838
0.011144259
0.0090376495
0.0072734293
0.0058026711
0.0045776136
0.0035568907
0.0027060084
0.0019964522
0.0014046387
0.00091102217
0.00049936501
0.00015615705
0.044413573
0.044711147
0.04568138
0.047172258
0.047974376
0.047209479
0.04553856
0.043742605
0.041957771
0.040056701
0.037703089
0.034477606
0.030746931
0.02702023
0.023316152
0.019738925
0.016482679
0.013610621
0.011129315
0.009025637
0.0072638886
0.0057951559
0.0045717521
0.0035523795
0.0027026028
0.0019939549
0.0014028904
0.00090989241
0.00049874745
0.00015596431
0.044393936
0.044690465
0.045657677
0.047146818
0.047955006
0.047194698
0.045521428
0.043721251
0.041933031
0.040029607
0.037674096
0.034447221
0.030717209
0.026991342
0.023288366
0.019713861
0.016461014
0.013592411
0.01111438
0.0090136286
0.0072543476
0.0057876392
0.004565889
0.0035478662
0.0026991953
0.001991456
0.0014011409
0.00090876183
0.00049812947
0.00015577143
0.044374299
0.04466979
0.045633978
0.047121387
0.047935627
0.047179941
0.045504368
0.043699919
0.041908313
0.040002526
0.037645106
0.034416818
0.03068747
0.026962447
0.023260585
0.019688809
0.016439369
0.013574215
0.011099459
0.0090016292
0.0072448121
0.005780128
0.0045600282
0.0035433543
0.002695789
0.0019889579
0.0013993917
0.00090763142
0.00049751156
0.00015557857
0.044354662
0.044649123
0.045610298
0.047095937
0.047916223
0.047165213
0.045487326
0.043678605
0.041883618
0.039975461
0.037616117
0.034386407
0.030657719
0.026933565
0.023232835
0.019663776
0.016417746
0.013556043
0.011084551
0.0089896411
0.0072352817
0.0057726193
0.0045541682
0.0035388423
0.0026923822
0.0019864594
0.0013976419
0.00090650058
0.00049689333
0.00015538559
0.044335023
0.044628462
0.045586651
0.047070491
0.047896802
0.047150512
0.045470363
0.043657356
0.041858947
0.039948413
0.037587131
0.034355993
0.030627959
0.026904686
0.023205104
0.019638773
0.016396152
0.0135379
0.011069668
0.0089776732
0.0072257685
0.0057651229
0.0045483177
0.0035343373
0.0026889806
0.0019839647
0.0013958947
0.00090537148
0.00049627595
0.00015519288
0.044315383
0.044607806
0.045563039
0.047045032
0.047877363
0.04713583
0.045453412
0.043636143
0.0418343
0.039921382
0.037558148
0.034325582
0.030598203
0.026875821
0.02317739
0.0196138
0.016374584
0.01351978
0.011054804
0.0089657198
0.0072162663
0.0057576342
0.0045424738
0.0035298368
0.0026855816
0.0019814719
0.0013941489
0.00090424321
0.00049565899
0.00015500031
0.04429574
0.044587154
0.045539463
0.047019568
0.047857896
0.047121182
0.045436544
0.043614949
0.041809676
0.039894367
0.03752917
0.034295162
0.030568454
0.026846958
0.023149693
0.019588856
0.016353042
0.013501684
0.011039961
0.0089537838
0.0072067774
0.0057501568
0.0045366376
0.0035253423
0.0026821868
0.0019789824
0.0013924053
0.00090311637
0.00049504277
0.00015480797
0.044276093
0.044566505
0.045515884
0.046994103
0.047838416
0.047106558
0.045419687
0.043593806
0.041785076
0.039867368
0.037500202
0.034264733
0.030538697
0.02681811
0.023122028
0.019563935
0.016331531
0.01348361
0.011025139
0.008941861
0.007197299
0.0057426842
0.0045308043
0.0035208494
0.0026787928
0.0019764931
0.001390662
0.00090198952
0.00049442655
0.00015461565
0.044256443
0.044545861
0.045492324
0.046968625
0.047818905
0.047091956
0.045402911
0.043572711
0.041760522
0.039840385
0.037471237
0.0342343
0.030508935
0.026789272
0.023094389
0.019539048
0.016310053
0.013465568
0.011010347
0.008929961
0.007187838
0.0057352253
0.0045249821
0.0035163651
0.0026754056
0.0019740082
0.0013889218
0.00090086463
0.00049381149
0.00015442367
0.04423679
0.044525219
0.045468791
0.046943158
0.047799376
0.047077379
0.045386148
0.043551634
0.041735991
0.039813418
0.037442276
0.034203866
0.030479168
0.026760447
0.023066769
0.019514188
0.016288604
0.013447557
0.010995577
0.0089180797
0.0071783894
0.0057277764
0.0045191669
0.0035118858
0.0026720219
0.0019715258
0.0013871833
0.00089974088
0.00049319712
0.00015423191
0.044217132
0.044504577
0.045445291
0.046917665
0.047779825
0.04706282
0.045369463
0.043530599
0.041711481
0.039786467
0.03741332
0.03417344
0.03044942
0.026731632
0.023039171
0.019489367
0.016267185
0.013429577
0.010980832
0.0089062213
0.0071689582
0.0057203421
0.0045133623
0.0035074147
0.0026686445
0.0019690479
0.0013854478
0.00089861911
0.00049258385
0.00015404047
0.044197471
0.044483938
0.045421825
0.046892178
0.047760243
0.047048293
0.045352794
0.043509621
0.041686997
0.039759533
0.03738437
0.034143011
0.030419672
0.02670283
0.023011603
0.019464574
0.016245796
0.013411621
0.010966108
0.0088943787
0.0071595392
0.0057129154
0.0045075628
0.0035029468
0.0026652696
0.0019665717
0.0013837132
0.00089749778
0.00049197079
0.0001538491
0.044177804
0.044463301
0.045398373
0.046866679
0.047740648
0.047033785
0.045336202
0.043488662
0.041662535
0.039732616
0.03735543
0.034112579
0.030389922
0.026674046
0.02298407
0.019439812
0.016224445
0.013393696
0.010951412
0.0088825592
0.0071501395
0.0057055038
0.0045017753
0.003498488
0.0026619016
0.0019641007
0.0013819821
0.00089637881
0.00049135896
0.00015365811
0.044158131
0.044442669
0.045374929
0.046841169
0.047721016
0.047019298
0.045319627
0.043467739
0.041638096
0.039705716
0.037326497
0.034082145
0.030360172
0.026645276
0.022956559
0.019415085
0.016203127
0.013375799
0.010936741
0.0088707573
0.007140753
0.0056981026
0.0044959961
0.0034940352
0.0026585375
0.0019616326
0.0013802532
0.00089526127
0.00049074784
0.00015346734
0.044138455
0.044422033
0.045351507
0.046815668
0.047701367
0.047004834
0.045303127
0.04344688
0.041613685
0.039678833
0.037297569
0.034051716
0.030330427
0.02661652
0.022929072
0.019390393
0.016181843
0.013357938
0.010922102
0.0088589794
0.007131386
0.0056907155
0.0044902275
0.0034895908
0.0026551793
0.0019591692
0.0013785274
0.00089414577
0.00049013778
0.00015327691
0.044118775
0.044401399
0.045328119
0.046790146
0.047681692
0.046990393
0.045286646
0.043426038
0.041589315
0.039651965
0.037268646
0.034021293
0.030300699
0.026587772
0.022901609
0.019365734
0.016160586
0.013340106
0.010907483
0.0088472169
0.00712203
0.0056833354
0.0044844635
0.0034851493
0.0026518229
0.0019567067
0.0013768024
0.00089303064
0.00048952786
0.00015308651
0.04409909
0.044380768
0.045304765
0.046764642
0.047661985
0.046975974
0.045270237
0.043405225
0.041564966
0.039625111
0.037239732
0.033990873
0.030270969
0.026559047
0.022874187
0.019341105
0.016139362
0.013322305
0.010892893
0.008835482
0.0071126941
0.0056759716
0.0044787129
0.0034807181
0.0026484744
0.0019542499
0.0013750814
0.00089191805
0.00048891935
0.00015289658
0.044079402
0.044360141
0.045281443
0.046739105
0.047642262
0.046961573
0.045253849
0.043384481
0.041540641
0.039598275
0.03721083
0.033960452
0.03024124
0.026530334
0.022846787
0.019316509
0.016118173
0.013304529
0.010878324
0.008823764
0.007103371
0.0056686189
0.0044729698
0.0034762928
0.0026451305
0.0019517961
0.0013733626
0.00089080684
0.00048831172
0.00015270691
0.04405971
0.044339518
0.045258121
0.046713578
0.047622498
0.04694719
0.045237533
0.043363755
0.041516338
0.039571457
0.037181937
0.033930032
0.030211512
0.026501639
0.022819411
0.019291947
0.016097021
0.013286785
0.010863783
0.0088120689
0.007094067
0.005661281
0.0044672381
0.0034718762
0.0026417932
0.0019493472
0.0013716472
0.00088969785
0.00048770534
0.00015251764
0.044040014
0.0443189
0.045234812
0.046688045
0.047602716
0.046932835
0.045221238
0.043343057
0.041492057
0.039544654
0.03715305
0.033899621
0.030181804
0.026472955
0.02279206
0.019267423
0.016075901
0.013269069
0.010849266
0.0088003901
0.007084775
0.0056539504
0.0044615111
0.0034674624
0.002638458
0.0019468992
0.0013699322
0.00088858909
0.0004870991
0.00015232838
0.044020315
0.044298288
0.04521154
0.046662496
0.047582903
0.046918495
0.045205014
0.043322429
0.041467797
0.039517868
0.037124171
0.033869218
0.030152106
0.026444293
0.022764753
0.019242935
0.016054815
0.013251395
0.010834784
0.0087887379
0.0070755046
0.0056466372
0.0044557977
0.0034630592
0.0026351308
0.0019444574
0.0013682213
0.00088748294
0.00048649429
0.00015213957
0.044000613
0.044277681
0.045188302
0.046636963
0.047563058
0.046904171
0.045188809
0.043301817
0.041443575
0.039491096
0.037095301
0.033838823
0.030122408
0.026415644
0.022737469
0.019218473
0.016033757
0.013233746
0.010820322
0.0087771024
0.0070662464
0.0056393332
0.0044500915
0.0034586603
0.0026318067
0.001942018
0.001366512
0.00088637789
0.00048589005
0.00015195095
0.043980908
0.044257078
0.045165098
0.046611399
0.047543192
0.046889868
0.045172674
0.04328123
0.04141938
0.039464338
0.037066439
0.033808428
0.03009271
0.026387011
0.022710207
0.019194046
0.016012734
0.013216124
0.010805886
0.0087654882
0.0070570062
0.0056320425
0.0044443959
0.0034542707
0.002628489
0.0019395835
0.0013648062
0.00088527513
0.00048528695
0.00015176267
0.0439612
0.04423648
0.045141913
0.04658586
0.047523281
0.04687558
0.045156558
0.043260713
0.041395206
0.039437595
0.037037586
0.033778034
0.030063018
0.026358391
0.022682969
0.019169649
0.015991744
0.013198528
0.010791471
0.0087538924
0.0070477768
0.005624759
0.0044387048
0.0034498838
0.0026251728
0.00193715
0.0013631009
0.00088417261
0.00048468392
0.00015157441
0.04394149
0.044215887
0.045118733
0.046560286
0.047503351
0.046861312
0.045140514
0.043240212
0.041371053
0.039410869
0.037008742
0.033747654
0.030033354
0.026329789
0.022655769
0.019145297
0.015970794
0.013180969
0.010777089
0.0087423251
0.0070385711
0.0056174949
0.0044330296
0.003445509
0.0026218659
0.0019347232
0.0013614006
0.00088307328
0.00048408257
0.00015138668
0.043921777
0.044195301
0.045095579
0.04653472
0.047483383
0.046847057
0.045124488
0.04321974
0.041346921
0.039384159
0.036979906
0.033717283
0.030003693
0.026301209
0.022628604
0.019120975
0.015949873
0.01316344
0.01076273
0.0087307748
0.0070293786
0.005610242
0.0044273619
0.0034411401
0.0026185633
0.0019322994
0.0013597024
0.00088197529
0.000483482
0.00015119922
0.043902062
0.044174722
0.045072461
0.046509159
0.047463382
0.046832818
0.045108533
0.043199335
0.041322808
0.039357465
0.036951084
0.033686926
0.029974036
0.026272645
0.022601462
0.019096685
0.015928984
0.013145946
0.010748401
0.0087192464
0.0070202049
0.0056030031
0.0044217052
0.0034367797
0.0026152675
0.0019298803
0.0013580076
0.00088087947
0.00048288271
0.00015101215
0.043882345
0.04415415
0.045049378
0.046483568
0.047443355
0.046818599
0.045092594
0.043178943
0.041298723
0.039330784
0.036922273
0.033656572
0.029944382
0.026244094
0.022574341
0.019072425
0.015908125
0.013128475
0.010734091
0.0087077306
0.0070110387
0.0055957685
0.0044160507
0.0034324202
0.0026119719
0.0019274611
0.0013563125
0.00087978341
0.0004822833
0.00015082504
0.043862623
0.04413358
0.04502633
0.046458004
0.047423279
0.046804386
0.045076723
0.043158581
0.04127467
0.039304115
0.036893469
0.033626221
0.029914745
0.026215555
0.022547248
0.019048199
0.015887303
0.013111036
0.010719811
0.0086962418
0.007001894
0.0055885516
0.0044104101
0.0034280717
0.0026086852
0.0019250481
0.0013546217
0.00087869013
0.00048168546
0.00015063839
0.043842901
0.044113017
0.045003294
0.046432398
0.047403179
0.046790184
0.045060868
0.04313828
0.041250637
0.039277462
0.036864673
0.033595881
0.029885124
0.02618704
0.022520195
0.019024009
0.015866512
0.013093622
0.010705553
0.0086847705
0.0069927641
0.0055813449
0.0044047776
0.0034237284
0.0026054023
0.0019226382
0.0013529329
0.00087759812
0.00048108833
0.00015045198
0.043823179
0.044092463
0.044980267
0.046406817
0.047383033
0.046776004
0.045045082
0.043117991
0.041226622
0.039250823
0.036835888
0.033565553
0.029855509
0.02615854
0.022493167
0.01899985
0.015845754
0.013076239
0.010691322
0.0086733244
0.0069836528
0.0055741532
0.0043991571
0.0034193947
0.0026021263
0.0019202335
0.0013512476
0.0008765084
0.00048049245
0.00015026595
0.043803458
0.044071921
0.044957276
0.046381217
0.047362852
0.046761825
0.045029311
0.043097741
0.041202624
0.039224198
0.036807115
0.033535244
0.029825899
0.026130059
0.022466161
0.018975723
0.015825024
0.013058886
0.01067711
0.008661892
0.0069745506
0.0055669671
0.0043935399
0.0034150632
0.0025988511
0.0019178293
0.0013495625
0.00087541878
0.00047989647
0.00015007988
0.043783739
0.044051389
0.044934323
0.046355606
0.047342639
0.046747659
0.045013608
0.043077543
0.041178643
0.039197588
0.036778355
0.033504944
0.029796298
0.026101592
0.022439183
0.018951632
0.015804331
0.01304157
0.010662932
0.0086504858
0.0069654701
0.0055597989
0.0043879371
0.0034107427
0.0025955843
0.0019154315
0.0013478819
0.00087433205
0.00047930204
0.00014989429
0.043764021
0.044030868
0.044911406
0.046330013
0.047322375
0.046733504
0.044997921
0.043057355
0.041154685
0.03917099
0.036749604
0.03347465
0.029766727
0.026073144
0.022412242
0.018927574
0.01578367
0.013024278
0.010648777
0.0086390949
0.0069564022
0.0055526406
0.0043823411
0.0034064273
0.002592321
0.0019130362
0.0013462033
0.00087324664
0.00047870828
0.00014970892
0.043744305
0.044010349
0.044888529
0.046304378
0.047302088
0.046719352
0.044982293
0.043037215
0.041130761
0.039144404
0.036720862
0.033444369
0.029737163
0.026044714
0.02238533
0.01890355
0.015763045
0.013007016
0.010634649
0.0086277277
0.0069473533
0.0055454974
0.004376757
0.0034021215
0.0025890653
0.0019106462
0.0013445285
0.00087216361
0.00047811581
0.00014952395
0.043724593
0.043989842
0.044865662
0.046278779
0.047281753
0.046705211
0.044966691
0.043017115
0.041106855
0.039117832
0.036692131
0.033414102
0.029707607
0.026016305
0.022358443
0.018879555
0.015742448
0.01298978
0.010620542
0.0086163766
0.0069383147
0.0055383608
0.0043711771
0.0033978181
0.0025858112
0.0019082569
0.001342854
0.00087108072
0.00047752343
0.00014933902
0.043704886
0.043969349
0.044842812
0.046253138
0.047261384
0.046691076
0.044951137
0.042997025
0.041082966
0.039091275
0.036663418
0.03338386
0.029678061
0.025987914
0.022331583
0.0188556
0.015721886
0.012972577
0.010606465
0.0086050525
0.006929299
0.0055312422
0.0043656112
0.0033935258
0.0025825655
0.0019058737
0.0013411839
0.00087000063
0.00047693266
0.00014915458
0.043685183
0.043948871
0.044820005
0.046227509
0.047240979
0.046676942
0.044935618
0.042976996
0.041059093
0.039064733
0.036634721
0.033353632
0.029648536
0.025959538
0.022304755
0.018831675
0.015701355
0.012955407
0.010592409
0.0085937466
0.0069202962
0.0055241331
0.0043600522
0.0033892381
0.0025793237
0.0019034931
0.0013395155
0.00086892168
0.00047634259
0.00014897037
0.043665486
0.043928409
0.044797239
0.046201888
0.047220523
0.046662817
0.044920134
0.042956993
0.041035233
0.039038203
0.036606036
0.033323415
0.029619037
0.025931189
0.022277966
0.018807789
0.015680862
0.01293827
0.010578383
0.0085824632
0.0069113114
0.0055170383
0.0043545053
0.0033849591
0.0025760884
0.0019011175
0.0013378505
0.0008678449
0.00047575372
0.00014878652
0.043645796
0.043907964
0.044774513
0.046176224
0.047200036
0.046648688
0.044904695
0.042936999
0.041011397
0.039011686
0.036577361
0.033293212
0.029589545
0.025902856
0.022251199
0.018783933
0.015660399
0.012921156
0.010564378
0.0085711937
0.0069023361
0.0055099495
0.0043489619
0.0033806828
0.0025728542
0.0018987426
0.0013361856
0.00086676812
0.00047516482
0.00014860265
0.043626113
0.043887534
0.044751826
0.0461506
0.047179492
0.046634558
0.044889279
0.042917072
0.040987592
0.038985182
0.036548698
0.033263028
0.029560064
0.025874544
0.022224459
0.01876011
0.015639972
0.012904076
0.010550406
0.0085599501
0.0068933828
0.0055028785
0.0043434327
0.0033764178
0.0025696284
0.001896374
0.0013345251
0.00086569423
0.00047457746
0.00014841926
0.043606439
0.043867122
0.04472915
0.046124916
0.047158908
0.046620432
0.044873913
0.042897157
0.040963801
0.038958692
0.036520052
0.033232867
0.029530595
0.025846246
0.022197744
0.018736321
0.015619572
0.01288702
0.010536453
0.0085487235
0.0068844429
0.0054958183
0.0043379113
0.0033721581
0.0025664066
0.0018940087
0.0013328669
0.00086462188
0.00047399088
0.00014823612
0.043586775
0.04384673
0.044706491
0.046099256
0.047138279
0.046606298
0.044858565
0.042877263
0.040940023
0.038932214
0.036491422
0.033202726
0.029501157
0.025817972
0.022171071
0.018712564
0.015599204
0.012869994
0.010522527
0.0085375201
0.0068755208
0.0054887724
0.0043324011
0.0033679077
0.0025631914
0.0018916482
0.0013312123
0.0008635518
0.00047340548
0.00014805335
0.043567121
0.04382636
0.044683874
0.046073587
0.047117592
0.046592158
0.044843268
0.042857429
0.040916258
0.03890575
0.036462806
0.0331726
0.029471738
0.025789718
0.022144426
0.018688845
0.015578871
0.012853002
0.010508623
0.0085263327
0.0068666095
0.0054817336
0.0043268955
0.0033636602
0.0025599783
0.0018892886
0.0013295583
0.00086248205
0.00047282021
0.00014787062
0.04354748
0.043806012
0.044661298
0.046047887
0.047096866
0.046578018
0.044827984
0.042837599
0.040892503
0.038879297
0.036434202
0.033142491
0.029442331
0.025761489
0.022117808
0.018665159
0.015558576
0.012836043
0.010494748
0.0085151727
0.0068577207
0.0054747116
0.0043214031
0.0033594229
0.0025567733
0.0018869348
0.0013279084
0.00086141489
0.00047223635
0.00014768832
0.043527852
0.043785687
0.04463876
0.04602222
0.047076077
0.046563863
0.044812749
0.042817805
0.040868777
0.038852854
0.036405611
0.033112403
0.029412935
0.025733272
0.022091211
0.018641501
0.015538308
0.012819107
0.010480894
0.0085040271
0.006848843
0.0054676986
0.0043159166
0.00335519
0.0025535715
0.0018845833
0.0013262601
0.00086034882
0.00047165316
0.00014750626
0.043508239
0.043765385
0.044616259
0.045996484
0.047055237
0.046549696
0.044797526
0.042798048
0.040845071
0.038826422
0.036377036
0.033082337
0.029383555
0.025705072
0.022064646
0.018617876
0.015518069
0.012802199
0.010467068
0.0084929019
0.0068399817
0.0054606985
0.0043104414
0.0033509651
0.0025503762
0.0018822362
0.0013246149
0.00085928471
0.00047107109
0.00014732454
0.043488642
0.043745107
0.044593781
0.045970774
0.047034342
0.046535525
0.044782348
0.042778294
0.040821377
0.038800003
0.036348481
0.033052297
0.02935421
0.025676899
0.022038118
0.01859428
0.015497859
0.012785315
0.010453263
0.0084817919
0.0068311311
0.0054537057
0.0043049711
0.0033467431
0.0025471826
0.0018798902
0.0013229703
0.00085822089
0.00047048923
0.00014714287
0.043469062
0.043724858
0.044571307
0.04594504
0.047013382
0.046521333
0.044767191
0.042758598
0.040797692
0.038773596
0.036319943
0.033022277
0.029324881
0.025648748
0.022011618
0.018570728
0.015477687
0.012768467
0.010439489
0.0084707096
0.0068223039
0.0054467313
0.0042995154
0.0033425333
0.0025439978
0.001877551
0.0013213302
0.00085716001
0.00046990898
0.00014696169
0.043449501
0.043704635
0.044548873
0.045919281
0.046992373
0.046507123
0.044752059
0.042738916
0.040774015
0.038747201
0.036291421
0.032992274
0.029295567
0.025620617
0.021985141
0.018547203
0.015457547
0.01275165
0.010425736
0.0084596453
0.0068134903
0.0054397682
0.0042940678
0.0033383294
0.0025408173
0.0018752151
0.0013196923
0.00085610061
0.00046932956
0.00014678079
0.043429961
0.043684441
0.044526478
0.045893549
0.046971293
0.046492905
0.044736962
0.042719242
0.04075035
0.038720814
0.036262911
0.032962297
0.029266265
0.025592499
0.021958688
0.018523708
0.01543744
0.012734861
0.010412006
0.0084486005
0.0068046925
0.0054328181
0.0042886307
0.0033341336
0.0025376429
0.001872884
0.0013180577
0.00085504337
0.00046875126
0.00014660023
0.043410444
0.043664279
0.044504119
0.045867741
0.046950152
0.046478659
0.044721878
0.042699626
0.040726715
0.038694437
0.036234418
0.032932339
0.029236988
0.025564404
0.021932272
0.018500242
0.015417356
0.012718093
0.010398294
0.00843757
0.0067959026
0.0054258725
0.0042831962
0.0033299396
0.0025344691
0.001870553
0.0013164233
0.00085398613
0.00046817286
0.00014641963
0.04339095
0.043644149
0.044481796
0.045841957
0.046928947
0.046464389
0.044706828
0.042680008
0.040703091
0.038668072
0.036205945
0.032902415
0.029207741
0.025536331
0.021905886
0.018476809
0.015397306
0.012701358
0.010384615
0.0084265652
0.0067871356
0.0054189443
0.0042777755
0.0033257564
0.0025313037
0.0018682281
0.0013147933
0.00085293174
0.00046759596
0.0001462395
0.043371482
0.043624053
0.044459507
0.045816142
0.046907668
0.046450103
0.044691787
0.042660424
0.040679473
0.038641719
0.036177491
0.032872513
0.029178511
0.025508282
0.021879524
0.018453413
0.015377284
0.012684648
0.01037096
0.0084155778
0.0067783823
0.0054120274
0.0042723625
0.003321579
0.002528143
0.0018659064
0.0013131656
0.00085187884
0.00046701987
0.00014605963
0.043352041
0.043603993
0.044437212
0.045790294
0.046886328
0.046435784
0.044676781
0.04264087
0.04065586
0.038615376
0.036149052
0.03284263
0.029149297
0.025480249
0.021853187
0.018430047
0.015357299
0.012667967
0.01035733
0.0084046123
0.0067696469
0.0054051251
0.0042669613
0.0033174107
0.0025249893
0.0018635897
0.0013115414
0.00085082824
0.00046644504
0.00014588016
0.04333263
0.043583971
0.044414946
0.045764472
0.046864908
0.046421435
0.044661782
0.042621313
0.040632251
0.038589042
0.03612063
0.032812773
0.029120097
0.025452234
0.021826879
0.018406709
0.015337341
0.012651314
0.010343717
0.0083936587
0.0067609194
0.0053982276
0.004261564
0.0033132439
0.0025218367
0.0018612733
0.0013099173
0.00084977758
0.0004658702
0.00014570069
0.043313251
0.043563988
0.044392716
0.045738563
0.046843418
0.046407065
0.044646811
0.042601809
0.040608669
0.038562717
0.036092224
0.032782941
0.029090933
0.025424244
0.021800607
0.018383402
0.015317415
0.012634692
0.01033013
0.0083827302
0.0067522125
0.0053913461
0.0042561796
0.0033090873
0.0025186919
0.0018589627
0.0013082973
0.00084872956
0.00046529687
0.00014552168
0.043293902
0.043544042
0.04437052
0.045712674
0.046821853
0.046392656
0.044631858
0.042582307
0.040585101
0.038536404
0.036063843
0.032753141
0.029061791
0.025396277
0.021774358
0.018360125
0.015297516
0.012618093
0.010316564
0.0083718168
0.0067435173
0.005384474
0.0042508015
0.003304936
0.0025155506
0.0018566549
0.0013066791
0.00084768271
0.00046472427
0.0001453429
0.043274589
0.043524139
0.044348355
0.045686756
0.046800208
0.046378208
0.044616918
0.042562824
0.040561537
0.038510102
0.036035483
0.03272337
0.029032667
0.025368329
0.021748134
0.018336884
0.015277647
0.012601525
0.010303027
0.0083609283
0.0067348411
0.005377618
0.0042454363
0.0033007946
0.0025124166
0.0018543526
0.0013050646
0.00084663831
0.000464153
0.00014516453
0.043255313
0.043504281
0.044326221
0.04566079
0.04677849
0.046363734
0.044601998
0.042543378
0.040537976
0.038483809
0.036007143
0.032693621
0.02900356
0.025340396
0.021721935
0.018313671
0.015257808
0.012584979
0.010289511
0.0083500546
0.0067261752
0.0053707686
0.0042400755
0.0032966557
0.0025092841
0.0018520513
0.0013034505
0.0008455941
0.00046358181
0.00014498618
0.043236077
0.043484468
0.044304111
0.045634845
0.046756684
0.046349215
0.044587082
0.042523922
0.040514414
0.038457525
0.03597882
0.032663897
0.028974473
0.025312491
0.021695774
0.01829049
0.015238003
0.012568462
0.010276023
0.0083392044
0.0067175308
0.0053639356
0.004234728
0.003292528
0.0025061599
0.0018497563
0.0013018409
0.00084455277
0.00046301214
0.0001448083
0.043216882
0.043464704
0.044281991
0.045608813
0.046734796
0.046334649
0.04457219
0.042504512
0.040490869
0.03843125
0.035950516
0.032634202
0.028945424
0.025284604
0.021669638
0.018267335
0.015218225
0.012551973
0.010262552
0.0083283672
0.006708896
0.0053571107
0.0042293859
0.0032884044
0.0025030386
0.0018474636
0.001300233
0.00084351258
0.00046244304
0.0001446306
0.043197731
0.04344499
0.044259902
0.045582784
0.046712824
0.046320053
0.044557299
0.042485105
0.040467343
0.038404985
0.035922237
0.032604535
0.028916392
0.02525674
0.021643525
0.018244212
0.015198476