/*--------------------------------*- C++ -*----------------------------------*\
| =========                 |                                                 |
| \\      /  F ield         | OpenFOAM: The Open Source CFD Toolbox           |
|  \\    /   O peration     | Version:  v2012                                 |
|   \\  /    A nd           | Website:  www.openfoam.com                      |
|    \\/     M anipulation  |                                                 |
\*---------------------------------------------------------------------------*/
FoamFile
{
    version     2.0;
    format      ascii;
    class       volScalarField;
    location    "650";
    object      nut;
}
// * * * * * * * * * * * * * * * * * * * * * * * * * * * * * * * * * * * * * //

dimensions      [0 2 -1 0 0 0 0];


internalField   nonuniform List<scalar> 
24000
(
3.1436564e-05
1.0340084e-05
6.9472359e-06
8.8989738e-06
1.1810463e-05
1.339123e-05
1.4261886e-05
1.4195118e-05
1.4053744e-05
1.3615848e-05
8.891349e-06
5.6905851e-06
4.8351861e-06
4.003078e-06
2.582165e-06
1.6613869e-06
1.0298095e-06
5.5258004e-07
2.3226081e-07
8.3752745e-08
2.6780591e-08
7.7738092e-09
2.0609539e-09
4.9278653e-10
1.0291946e-10
1.7751437e-11
2.3401452e-12
2.7313915e-13
1.1678617e-13
1.2817312e-13
3.1497007e-05
1.0215727e-05
6.8977931e-06
8.872431e-06
1.1764693e-05
1.3360491e-05
1.4242601e-05
1.4180465e-05
1.4039123e-05
1.359275e-05
8.8777941e-06
5.6811521e-06
4.825333e-06
3.9869974e-06
2.5721214e-06
1.6547997e-06
1.0253038e-06
5.4995421e-07
2.3102723e-07
8.3275599e-08
2.6621787e-08
7.7267165e-09
2.0483378e-09
4.8975575e-10
1.0228476e-10
1.7641397e-11
2.3252393e-12
2.7101683e-13
1.1558557e-13
1.268554e-13
3.1559312e-05
1.0320767e-05
6.9386316e-06
8.8490279e-06
1.1725269e-05
1.3307922e-05
1.4184186e-05
1.4117345e-05
1.3974629e-05
1.356748e-05
8.8602609e-06
5.6695341e-06
4.8148148e-06
3.973418e-06
2.5629407e-06
1.6487374e-06
1.0211522e-06
5.4689283e-07
2.2953892e-07
8.2689906e-08
2.6426513e-08
7.6692701e-09
2.0331304e-09
4.8615089e-10
1.0154175e-10
1.7515965e-11
2.3098218e-12
2.7010214e-13
1.15835e-13
1.2710357e-13
3.1622995e-05
1.0361249e-05
6.9435477e-06
8.8261795e-06
1.1690768e-05
1.3268557e-05
1.4142563e-05
1.4076174e-05
1.3932931e-05
1.3540771e-05
8.8414199e-06
5.657495e-06
4.8046007e-06
3.9584622e-06
2.5534703e-06
1.6428327e-06
1.017322e-06
5.4443543e-07
2.2841903e-07
8.2267722e-08
2.6288945e-08
7.6291757e-09
2.0225355e-09
4.8363408e-10
1.010205e-10
1.7427128e-11
2.298498e-12
2.6907129e-13
1.1560053e-13
1.2683344e-13
3.1687642e-05
1.0396882e-05
6.9428989e-06
8.8035598e-06
1.1657079e-05
1.322967e-05
1.4102022e-05
1.4036725e-05
1.3892688e-05
1.3513276e-05
8.8214812e-06
5.6449101e-06
4.7943982e-06
3.9440301e-06
2.5441815e-06
1.6369282e-06
1.0134056e-06
5.4181165e-07
2.2719643e-07
8.1798864e-08
2.6134454e-08
7.5838616e-09
2.0105217e-09
4.807759e-10
1.004283e-10
1.7326254e-11
2.285691e-12
2.6795272e-13
1.1539159e-13
1.2658877e-13
3.1753112e-05
1.0423575e-05
6.9387335e-06
8.7811425e-06
1.1623786e-05
1.319173e-05
1.4063027e-05
1.3999182e-05
1.3854125e-05
1.3485235e-05
8.800816e-06
5.6319786e-06
4.7842423e-06
3.9295861e-06
2.5348322e-06
1.6309548e-06
1.0094368e-06
5.3915706e-07
2.2595981e-07
8.1324727e-08
2.5978204e-08
7.5380116e-09
1.9983588e-09
4.7788035e-10
9.9827946e-11
1.7223915e-11
2.2726757e-12
2.6679942e-13
1.1516004e-13
1.263183e-13
3.1819301e-05
1.0445442e-05
6.9332865e-06
8.7588884e-06
1.1590726e-05
1.3154185e-05
1.4024717e-05
1.3962428e-05
1.3816505e-05
1.3456832e-05
8.7796479e-06
5.6188061e-06
4.7741265e-06
3.9151811e-06
2.5254647e-06
1.6249445e-06
1.0054346e-06
5.3647373e-07
2.2470854e-07
8.0844641e-08
2.5819907e-08
7.4915403e-09
1.9860263e-09
4.7494346e-10
9.9218839e-11
1.7120046e-11
2.2594523e-12
2.6561636e-13
1.1491178e-13
1.2602881e-13
3.1886154e-05
1.0462879e-05
6.9272154e-06
8.7367785e-06
1.1557817e-05
1.311687e-05
1.3986803e-05
1.3926151e-05
1.3779937e-05
1.3428178e-05
8.7581263e-06
5.6054724e-06
4.7640503e-06
3.9008129e-06
2.5160938e-06
1.6189159e-06
1.0014155e-06
5.3377578e-07
2.234499e-07
8.0361564e-08
2.5660574e-08
7.44475e-09
1.9736056e-09
4.7198482e-10
9.8605087e-11
1.7015363e-11
2.2461194e-12
2.6441863e-13
1.1465572e-13
1.2572981e-13
3.195364e-05
1.0477434e-05
6.9208532e-06
8.7147987e-06
1.1525032e-05
1.3079693e-05
1.3949109e-05
1.3890165e-05
1.3743864e-05
1.3399343e-05
8.7363528e-06
5.5920318e-06
4.7540128e-06
3.8864892e-06
2.5067338e-06
1.6128835e-06
9.9739149e-07
5.3107353e-07
2.221894e-07
7.9877827e-08
2.5501022e-08
7.3978915e-09
1.9611653e-09
4.6902114e-10
9.7990217e-11
1.6910476e-11
2.2327555e-12
2.6321337e-13
1.1439345e-13
1.2542318e-13
3.2021746e-05
1.0490114e-05
6.9143492e-06
8.6929391e-06
1.1492351e-05
1.3042621e-05
1.391157e-05
1.3854376e-05
1.3708038e-05
1.3370374e-05
8.7143956e-06
5.5785206e-06
4.7440125e-06
3.8722149e-06
2.4973936e-06
1.6068555e-06
9.9336884e-07
5.2837203e-07
2.209295e-07
7.9394368e-08
2.5341561e-08
7.3510559e-09
1.9487297e-09
4.6605828e-10
9.7375462e-11
1.68056e-11
2.2193901e-12
2.6200494e-13
1.1412747e-13
1.2511165e-13
3.2090467e-05
1.050162e-05
6.907781e-06
8.6711921e-06
1.1459758e-05
1.3005633e-05
1.3874148e-05
1.3818736e-05
1.3672359e-05
1.3341302e-05
8.6923008e-06
5.5649634e-06
4.7340474e-06
3.8579943e-06
2.48808e-06
1.6008387e-06
9.8935311e-07
5.256761e-07
2.1967278e-07
7.8912291e-08
2.5182582e-08
7.3043634e-09
1.9363318e-09
4.6310427e-10
9.6762519e-11
1.6701029e-11
2.2060615e-12
2.6079734e-13
1.1385918e-13
1.247968e-13
3.2159805e-05
1.0512408e-05
6.9011889e-06
8.6495516e-06
1.1427233e-05
1.296871e-05
1.3836799e-05
1.37832e-05
1.3636785e-05
1.3312148e-05
8.6701013e-06
5.5513777e-06
4.7241159e-06
3.8438291e-06
2.4787968e-06
1.5948367e-06
9.8534708e-07
5.2298807e-07
2.1842036e-07
7.8432023e-08
2.5024224e-08
7.257855e-09
1.9239824e-09
4.601617e-10
9.6151924e-11
1.6596856e-11
2.192782e-12
2.5959213e-13
1.1358932e-13
1.2447949e-13
3.2229763e-05
1.0522715e-05
6.8945943e-06
8.6280128e-06
1.1394766e-05
1.2931844e-05
1.3799512e-05
1.3747736e-05
1.360128e-05
1.328293e-05
8.6478213e-06
5.5377758e-06
4.7142167e-06
3.8297217e-06
2.4695474e-06
1.5888533e-06
9.8135376e-07
5.2031027e-07
2.171735e-07
7.7954103e-08
2.4866678e-08
7.21159e-09
1.9116979e-09
4.5723454e-10
9.5544521e-11
1.6493226e-11
2.179571e-12
2.5839167e-13
1.1331899e-13
1.2416095e-13
3.2300346e-05
1.0532633e-05
6.8880077e-06
8.6065713e-06
1.1362354e-05
1.2895035e-05
1.3762287e-05
1.371233e-05
1.3565824e-05
1.3253657e-05
8.6254776e-06
5.5241666e-06
4.7043491e-06
3.8156725e-06
2.4603335e-06
1.5828896e-06
9.77374e-07
5.1764333e-07
2.1593242e-07
7.7478582e-08
2.4709955e-08
7.1655692e-09
1.8994782e-09
4.5432274e-10
9.4940291e-11
1.6390137e-11
2.1664283e-12
2.5719626e-13
1.1304854e-13
1.2384157e-13
3.2371559e-05
1.0542218e-05
6.881429e-06
8.5852238e-06
1.1329987e-05
1.2858278e-05
1.3725107e-05
1.3676976e-05
1.3530416e-05
1.3224338e-05
8.6030827e-06
5.5105561e-06
4.694512e-06
3.8016821e-06
2.4511567e-06
1.5769476e-06
9.7340956e-07
5.1498881e-07
2.14698e-07
7.7005859e-08
2.4554198e-08
7.1198378e-09
1.8873358e-09
4.5142938e-10
9.4339885e-11
1.6287701e-11
2.1533684e-12
2.5600734e-13
1.1277843e-13
1.2352195e-13
3.2443406e-05
1.055155e-05
6.8748564e-06
8.5639671e-06
1.1297658e-05
1.2821566e-05
1.3687962e-05
1.3641663e-05
1.3495048e-05
1.3194978e-05
8.5806458e-06
5.496949e-06
4.6847039e-06
3.7877501e-06
2.4420176e-06
1.5710278e-06
9.6946074e-07
5.1234708e-07
2.1347037e-07
7.653595e-08
2.4399406e-08
7.0743939e-09
1.8752699e-09
4.4855419e-10
9.3743237e-11
1.6185905e-11
2.1403895e-12
2.5482473e-13
1.1250864e-13
1.2320206e-13
3.251589e-05
1.0560702e-05
6.8682871e-06
8.5427984e-06
1.1265361e-05
1.2784903e-05
1.3650865e-05
1.3606388e-05
1.345971e-05
1.3165581e-05
8.5581737e-06
5.4833487e-06
4.6749238e-06
3.7738778e-06
2.4329172e-06
1.5651316e-06
9.6552862e-07
5.0971889e-07
2.1224997e-07
7.606906e-08
2.4245654e-08
7.0292616e-09
1.8632872e-09
4.4569886e-10
9.3150706e-11
1.6084812e-11
2.1274999e-12
2.536495e-13
1.122397e-13
1.2288253e-13
3.2589016e-05
1.0569692e-05
6.8617182e-06
8.5217152e-06
1.1233088e-05
1.2748287e-05
1.3613811e-05
1.357116e-05
1.3424409e-05
1.3136151e-05
8.5356717e-06
5.4697578e-06
4.6651713e-06
3.7600649e-06
2.4238553e-06
1.5592583e-06
9.616126e-07
5.071037e-07
2.1103643e-07
7.5605e-08
2.409287e-08
6.9844171e-09
1.8513812e-09
4.4286172e-10
9.2561942e-11
1.598436e-11
2.1146919e-12
2.5248095e-13
1.1197148e-13
1.2256326e-13
3.2662785e-05
1.0578472e-05
6.8551457e-06
8.5007149e-06
1.1200842e-05
1.2711713e-05
1.357679e-05
1.3535974e-05
1.3389149e-05
1.3106689e-05
8.5131446e-06
5.4561784e-06
4.6554459e-06
3.7463113e-06
2.4148322e-06
1.5534086e-06
9.577135e-07
5.0450228e-07
2.0983022e-07
7.5143996e-08
2.394114e-08
6.9398886e-09
1.8395596e-09
4.4004478e-10
9.1977372e-11
1.5884624e-11
2.1019747e-12
2.5131995e-13
1.1170419e-13
1.222445e-13
3.2737199e-05
1.0587001e-05
6.8485627e-06
8.4797957e-06
1.1168621e-05
1.2675188e-05
1.3539814e-05
1.3500815e-05
1.3353918e-05
1.3077198e-05
8.4905963e-06
5.442612e-06
4.6457467e-06
3.7326168e-06
2.4058482e-06
1.5475826e-06
9.5383104e-07
5.0191439e-07
2.0863114e-07
7.4685946e-08
2.3790424e-08
6.8956625e-09
1.8278187e-09
4.3724703e-10
9.1396775e-11
1.5785564e-11
2.0893432e-12
2.501659e-13
1.114376e-13
1.2192606e-13
3.2812257e-05
1.0595292e-05
6.8419641e-06
8.4589554e-06
1.1136423e-05
1.2638704e-05
1.3502875e-05
1.3465681e-05
1.331871e-05
1.3047679e-05
8.46803e-06
5.4290598e-06
4.6360723e-06
3.7189818e-06
2.396904e-06
1.5417813e-06
9.4996627e-07
4.9934072e-07
2.0743961e-07
7.4231043e-08
2.3640791e-08
6.8517614e-09
1.8161647e-09
4.3447003e-10
9.0820485e-11
1.568724e-11
2.076805e-12
2.4901977e-13
1.1117222e-13
1.2160852e-13
3.288796e-05
1.0603395e-05
6.8353451e-06
8.4381924e-06
1.1104238e-05
1.2602259e-05
1.3465961e-05
1.3430571e-05
1.3283535e-05
1.3018133e-05
8.4454485e-06
5.415523e-06
4.6264221e-06
3.7054055e-06
2.3879989e-06
1.5360039e-06
9.4611843e-07
4.9678068e-07
2.0625522e-07
7.3779071e-08
2.3492159e-08
6.8081575e-09
1.8045897e-09
4.3171178e-10
9.0248069e-11
1.5589574e-11
2.0643504e-12
2.4788065e-13
1.1090783e-13
1.2129166e-13
3.2964306e-05
1.0611329e-05
6.8287031e-06
8.4175049e-06
1.1072066e-05
1.2565855e-05
1.3429084e-05
1.3395488e-05
1.3248389e-05
1.2988563e-05
8.4228548e-06
5.4020029e-06
4.616796e-06
3.6918874e-06
2.379133e-06
1.5302511e-06
9.422882e-07
4.9423498e-07
2.0507842e-07
7.3330247e-08
2.3344608e-08
6.7648773e-09
1.7931012e-09
4.2897417e-10
8.9679932e-11
1.5492637e-11
2.051988e-12
2.4674926e-13
1.1064453e-13
1.2097566e-13
3.3041294e-05
1.0619049e-05
6.8220354e-06
8.396891e-06
1.1039908e-05
1.2529495e-05
1.3392247e-05
1.3360434e-05
1.3213268e-05
1.2958967e-05
8.400251e-06
5.3885004e-06
4.6071934e-06
3.678428e-06
2.3703061e-06
1.524522e-06
9.3847485e-07
4.91703e-07
2.0390883e-07
7.2884392e-08
2.3198073e-08
6.7218995e-09
1.7816933e-09
4.2625571e-10
8.9115753e-11
1.5396373e-11
2.0397105e-12
2.4562473e-13
1.1038195e-13
1.2066013e-13
3.311892e-05
1.0626492e-05
6.8153367e-06
8.3763493e-06
1.1007767e-05
1.2493176e-05
1.335544e-05
1.3325415e-05
1.3178181e-05
1.2929349e-05
8.3776389e-06
5.3750157e-06
4.5976133e-06
3.6650273e-06
2.3615187e-06
1.5188175e-06
9.3467904e-07
4.891851e-07
2.0274666e-07
7.2441628e-08
2.3052602e-08
6.6792407e-09
1.7703707e-09
4.2355763e-10
8.8555798e-11
1.5300828e-11
2.0275242e-12
2.4450791e-13
1.1012055e-13
1.203456e-13
3.3197181e-05
1.0633646e-05
6.8086037e-06
8.3558783e-06
1.0975643e-05
1.24569e-05
1.3318672e-05
1.329043e-05
1.3143125e-05
1.2899708e-05
8.35502e-06
5.3615487e-06
4.5880544e-06
3.6516848e-06
2.3527699e-06
1.5131366e-06
9.3089993e-07
4.8668051e-07
2.0159145e-07
7.2001707e-08
2.29081e-08
6.6368699e-09
1.7591246e-09
4.2087774e-10
8.7999602e-11
1.5205921e-11
2.0154184e-12
2.4339784e-13
1.0986012e-13
1.2003188e-13
3.3276072e-05
1.0640556e-05
6.8018316e-06
8.3354769e-06
1.0943533e-05
1.2420669e-05
1.3281947e-05
1.3255469e-05
1.310809e-05
1.2870044e-05
8.3323963e-06
5.3481002e-06
4.5785162e-06
3.6383997e-06
2.34406e-06
1.5074802e-06
9.2713842e-07
4.8419011e-07
2.004437e-07
7.1564883e-08
2.2764662e-08
6.5948175e-09
1.7479637e-09
4.1821815e-10
8.7447614e-11
1.511173e-11
2.0034031e-12
2.4229535e-13
1.0960081e-13
1.1971917e-13
3.3355588e-05
1.0647271e-05
6.7950182e-06
8.3151435e-06
1.0911429e-05
1.2384473e-05
1.3245246e-05
1.3220529e-05
1.3073086e-05
1.2840359e-05
8.3097705e-06
5.3346713e-06
4.5689986e-06
3.6251718e-06
2.3353885e-06
1.5018475e-06
9.2339385e-07
4.8171343e-07
1.9930313e-07
7.1131003e-08
2.2622228e-08
6.5530637e-09
1.7368822e-09
4.1557743e-10
8.6899518e-11
1.5018197e-11
1.9914704e-12
2.4119948e-13
1.093422e-13
1.1940704e-13
3.3435722e-05
1.0653778e-05
6.7881615e-06
8.2948771e-06
1.0879333e-05
1.2348317e-05
1.3208579e-05
1.3185614e-05
1.3038111e-05
1.2810655e-05
8.2871449e-06
5.3212627e-06
4.5595011e-06
3.6120018e-06
2.326756e-06
1.4962391e-06
9.1966676e-07
4.7925078e-07
1.9816995e-07
7.0700187e-08
2.2480847e-08
6.5116253e-09
1.7258851e-09
4.1295682e-10
8.635559e-11
1.4925374e-11
1.9796273e-12
2.4011112e-13
1.0908472e-13
1.19096e-13
3.3516469e-05
1.0660005e-05
6.7812583e-06
8.2746766e-06
1.084725e-05
1.2312207e-05
1.3171953e-05
1.3150723e-05
1.3003156e-05
1.2780932e-05
8.2645209e-06
5.3078743e-06
4.5500225e-06
3.5988887e-06
2.3181613e-06
1.490654e-06
9.1595607e-07
4.7680126e-07
1.970436e-07
7.0272157e-08
2.2340415e-08
6.4704684e-09
1.7149627e-09
4.1035397e-10
8.5815327e-11
1.4833172e-11
1.9678623e-12
2.3902921e-13
1.0882814e-13
1.1878579e-13
3.3597817e-05
1.0665901e-05
6.7743071e-06
8.2545408e-06
1.0815181e-05
1.2276136e-05
1.3135356e-05
1.3115862e-05
1.2968233e-05
1.2751191e-05
8.2419005e-06
5.2945065e-06
4.5405618e-06
3.5858314e-06
2.3096047e-06
1.4850928e-06
9.1226263e-07
4.7436565e-07
1.9592455e-07
6.9847146e-08
2.2201017e-08
6.4296211e-09
1.7041231e-09
4.0777084e-10
8.5279146e-11
1.4741663e-11
1.9561845e-12
2.379545e-13
1.0857254e-13
1.1847657e-13
3.3679759e-05
1.0671488e-05
6.7673043e-06
8.2344692e-06
1.0783126e-05
1.2240111e-05
1.3098799e-05
1.3081041e-05
1.2933344e-05
1.2721433e-05
8.2192851e-06
5.2811595e-06
4.5311183e-06
3.5728298e-06
2.3010856e-06
1.4795548e-06
9.0858565e-07
4.7194337e-07
1.9481242e-07
6.942497e-08
2.2062585e-08
6.3890605e-09
1.6933597e-09
4.0520579e-10
8.4746693e-11
1.4650784e-11
1.9445855e-12
2.3688598e-13
1.083175e-13
1.181679e-13
3.376229e-05
1.0676828e-05
6.7602493e-06
8.2144607e-06
1.0751079e-05
1.2204131e-05
1.3062288e-05
1.3046251e-05
1.2898479e-05
1.269166e-05
8.1966764e-06
5.2678335e-06
4.5216917e-06
3.5598856e-06
2.2926046e-06
1.4740405e-06
9.0492583e-07
4.6953472e-07
1.9370748e-07
6.9005762e-08
2.1925172e-08
6.3488053e-09
1.682678e-09
4.0266023e-10
8.4218273e-11
1.456059e-11
1.9330727e-12
2.3582467e-13
1.0806356e-13
1.178604e-13
3.38454e-05
1.0681941e-05
6.7531403e-06
8.1945147e-06
1.0719038e-05
1.2168189e-05
1.3025806e-05
1.3011483e-05
1.2863644e-05
1.2661872e-05
8.1740768e-06
5.2545291e-06
4.5122816e-06
3.5469968e-06
2.2841604e-06
1.4685487e-06
9.0128188e-07
4.6713876e-07
1.926091e-07
6.858923e-08
2.1788668e-08
6.3088194e-09
1.6720678e-09
4.0013162e-10
8.3693348e-11
1.4470987e-11
1.9216342e-12
2.3476945e-13
1.0781044e-13
1.1755375e-13
3.3929078e-05
1.0686775e-05
6.7459769e-06
8.1746305e-06
1.0687007e-05
1.213229e-05
1.2989358e-05
1.2976739e-05
1.2828838e-05
1.2632071e-05
8.151489e-06
5.2412472e-06
4.5028869e-06
3.5341625e-06
2.2757533e-06
1.4630802e-06
8.9765476e-07
4.6475637e-07
1.9151784e-07
6.8175641e-08
2.1653173e-08
6.2691354e-09
1.6615382e-09
3.9762227e-10
8.3172409e-11
1.438206e-11
1.9102805e-12
2.3372121e-13
1.0755829e-13
1.1724817e-13
3.4013313e-05
1.0691268e-05
6.7387573e-06
8.1548077e-06
1.065499e-05
1.2096437e-05
1.2952953e-05
1.2942021e-05
1.2794055e-05
1.260226e-05
8.128915e-06
5.2279879e-06
4.4935065e-06
3.5213819e-06
2.2673826e-06
1.4576343e-06
8.9404367e-07
4.6238698e-07
1.9043333e-07
6.7764801e-08
2.1518613e-08
6.2297288e-09
1.6510824e-09
3.9513038e-10
8.2655064e-11
1.4293739e-11
1.8990021e-12
2.3267876e-13
1.0730655e-13
1.1694309e-13
3.4098092e-05
1.0695416e-05
6.7314779e-06
8.1350461e-06
1.0622989e-05
1.2060629e-05
1.291658e-05
1.2907332e-05
1.2759304e-05
1.2572439e-05
8.1063569e-06
5.2147518e-06
4.4841399e-06
3.5086567e-06
2.2590492e-06
1.4522118e-06
8.9044951e-07
4.6003106e-07
1.8935587e-07
6.7356872e-08
2.1385051e-08
6.1906211e-09
1.6407064e-09
3.9265755e-10
8.2141663e-11
1.4206087e-11
1.8878077e-12
2.3164322e-13
1.0705581e-13
1.1663917e-13
3.4183402e-05
1.0699273e-05
6.7241396e-06
8.1153453e-06
1.0591e-05
1.2024868e-05
1.2880248e-05
1.2872681e-05
1.2724587e-05
1.254261e-05
8.0838167e-06
5.2015391e-06
4.4747868e-06
3.4959853e-06
2.2507515e-06
1.4468111e-06
8.8687078e-07
4.5768746e-07
1.8828475e-07
6.6951514e-08
2.1252359e-08
6.1517701e-09
1.6303984e-09
3.9020079e-10
8.1631567e-11
1.4118992e-11
1.8766827e-12
2.3061324e-13
1.0680573e-13
1.16336e-13
3.426923e-05
1.0702898e-05
6.7167411e-06
8.0957052e-06
1.0559022e-05
1.1989158e-05
1.2843966e-05
1.283807e-05
1.2689899e-05
1.2512775e-05
8.0612958e-06
5.1883501e-06
4.4654465e-06
3.4833677e-06
2.2424897e-06
1.4414329e-06
8.8330834e-07
4.5535697e-07
1.8722051e-07
6.6548995e-08
2.112064e-08
6.1132106e-09
1.6201684e-09
3.8776264e-10
8.1125323e-11
1.4032551e-11
1.8656396e-12
2.2958989e-13
1.0655648e-13
1.1603386e-13
3.4355566e-05
1.0706287e-05
6.7092838e-06
8.0761259e-06
1.052705e-05
1.1953491e-05
1.280772e-05
1.2803487e-05
1.2655245e-05
1.2482935e-05
8.0387965e-06
5.1751851e-06
4.456118e-06
3.4708018e-06
2.2342629e-06
1.4360764e-06
8.7976135e-07
4.5303899e-07
1.8616274e-07
6.6149113e-08
2.0989816e-08
6.0749168e-09
1.610009e-09
3.8534122e-10
8.0622523e-11
1.394669e-11
1.8546685e-12
2.2857199e-13
1.0630757e-13
1.1573221e-13
3.4442394e-05
1.0709376e-05
6.7017662e-06
8.0566074e-06
1.049509e-05
1.191787e-05
1.2771514e-05
1.2768928e-05
1.262062e-05
1.2453094e-05
8.0163212e-06
5.1620451e-06
4.4468003e-06
3.4582894e-06
2.2260724e-06
1.4307427e-06
8.7623089e-07
4.5073415e-07
1.8511186e-07
6.5752072e-08
2.0859968e-08
6.0369152e-09
1.5999278e-09
3.8293846e-10
8.0123586e-11
1.3861483e-11
1.8437795e-12
2.275609e-13
1.0605969e-13
1.1543183e-13
3.4529699e-05
1.0712114e-05
6.6941856e-06
8.0371502e-06
1.0463148e-05
1.1882301e-05
1.2735357e-05
1.2734401e-05
1.2586022e-05
1.2423252e-05
7.9938706e-06
5.1489303e-06
4.4374934e-06
3.4458297e-06
2.2179164e-06
1.4254301e-06
8.7271545e-07
4.484413e-07
1.8406712e-07
6.5357512e-08
2.0730957e-08
5.9991605e-09
1.5899119e-09
3.8055115e-10
7.9627819e-11
1.3776811e-11
1.8329569e-12
2.2655514e-13
1.0581246e-13
1.1513229e-13
3.4617464e-05
1.0714516e-05
6.6865445e-06
8.0177545e-06
1.0431221e-05
1.1846779e-05
1.2699237e-05
1.2699906e-05
1.2551459e-05
1.2393412e-05
7.9714478e-06
5.1358416e-06
4.428197e-06
3.4334217e-06
2.209795e-06
1.4201395e-06
8.6921594e-07
4.4616137e-07
1.8302914e-07
6.4965733e-08
2.0602898e-08
5.9616906e-09
1.5799721e-09
3.7818199e-10
7.9135807e-11
1.3692774e-11
1.8222139e-12
2.2555577e-13
1.0556602e-13
1.1483379e-13
3.4705673e-05
1.0716637e-05
6.6788455e-06
7.998421e-06
1.039931e-05
1.1811309e-05
1.2663166e-05
1.2665454e-05
1.2516934e-05
1.2363578e-05
7.9490566e-06
5.1227792e-06
4.4189106e-06
3.4210637e-06
2.2017071e-06
1.4148695e-06
8.6573119e-07
4.4389349e-07
1.8199738e-07
6.4576483e-08
2.0475696e-08
5.9244744e-09
1.5700996e-09
3.7582876e-10
7.8647071e-11
1.3609289e-11
1.8115389e-12
2.2456141e-13
1.0531974e-13
1.1453566e-13
3.479431e-05
1.0718509e-05
6.6710946e-06
7.9791498e-06
1.0367415e-05
1.1775892e-05
1.2627148e-05
1.2631048e-05
1.248244e-05
1.233375e-05
7.9266983e-06
5.1097428e-06
4.4096333e-06
3.4087557e-06
2.1936537e-06
1.4096212e-06
8.6226222e-07
4.4163814e-07
1.809722e-07
6.418995e-08
2.0349427e-08
5.8875381e-09
1.5603021e-09
3.7349347e-10
7.816205e-11
1.3526432e-11
1.8009428e-12
2.2357349e-13
1.0507435e-13
1.1423872e-13
3.4883357e-05
1.0720092e-05
6.6632936e-06
7.9599415e-06
1.033554e-05
1.1740522e-05
1.2591171e-05
1.2596674e-05
1.2447982e-05
1.230393e-05
7.9043748e-06
5.0967326e-06
4.4003645e-06
3.3964971e-06
2.1856334e-06
1.4043931e-06
8.5880761e-07
4.3939425e-07
1.7995289e-07
6.3805791e-08
2.0223959e-08
5.8508383e-09
1.5505672e-09
3.7117296e-10
7.7680066e-11
1.3444087e-11
1.79041e-12
2.2259058e-13
1.0482953e-13
1.1394257e-13
3.4972795e-05
1.072131e-05
6.655445e-06
7.9407968e-06
1.0303689e-05
1.1705206e-05
1.2555241e-05
1.256233e-05
1.2413558e-05
1.2274123e-05
7.8820889e-06
5.0837495e-06
4.3911038e-06
3.3842863e-06
2.1776461e-06
1.399186e-06
8.5536843e-07
4.371629e-07
1.7894014e-07
6.3424328e-08
2.0099414e-08
5.8144145e-09
1.5409061e-09
3.6887006e-10
7.7201722e-11
1.3362358e-11
1.7799541e-12
2.2161382e-13
1.0458544e-13
1.1364748e-13
3.5062604e-05
1.072213e-05
6.6475503e-06
7.9217175e-06
1.0271868e-05
1.1669945e-05
1.251936e-05
1.2528021e-05
1.2379165e-05
1.224433e-05
7.8598426e-06
5.070794e-06
4.3818506e-06
3.3721223e-06
2.1696907e-06
1.3939988e-06
8.519435e-07
4.3494325e-07
1.7793343e-07
6.3045317e-08
1.9975699e-08
5.7782367e-09
1.5313102e-09
3.6658259e-10
7.6726549e-11
1.3281162e-11
1.7695638e-12
2.2064186e-13
1.043415e-13
1.1335279e-13
3.5152765e-05
1.0722584e-05
6.639611e-06
7.9027057e-06
1.0240073e-05
1.1634741e-05
1.2483523e-05
1.2493748e-05
1.234481e-05
1.2214554e-05
7.83764e-06
5.0578665e-06
4.372604e-06
3.360005e-06
2.1617681e-06
1.3888323e-06
8.4853369e-07
4.3273575e-07
1.7693308e-07
6.2668928e-08
1.9852884e-08
5.7423284e-09
1.5217865e-09
3.6431235e-10
7.6254942e-11
1.3200569e-11
1.7592491e-12
2.1967604e-13
1.0409841e-13
1.1305928e-13
3.5243258e-05
1.0722738e-05
6.6316381e-06
7.8780867e-06
1.0208294e-05
1.1599594e-05
1.2447741e-05
1.2459523e-05
1.2310487e-05
1.2184798e-05
7.8154827e-06
5.0449668e-06
4.363363e-06
3.3479339e-06
2.1538769e-06
1.3836849e-06
8.4513746e-07
4.3053914e-07
1.7593831e-07
6.2294789e-08
1.9730828e-08
5.7066437e-09
1.5123219e-09
3.6205609e-10
7.5786207e-11
1.312046e-11
1.7489943e-12
2.1871493e-13
1.0385583e-13
1.1276656e-13
3.533406e-05
1.0722627e-05
6.6236425e-06
7.8455746e-06
1.0176513e-05
1.15645e-05
1.2412017e-05
1.2425349e-05
1.2276204e-05
1.2155064e-05
7.7933722e-06
5.0320951e-06
4.3541269e-06
3.3359083e-06
2.146017e-06
1.3785574e-06
8.4175593e-07
4.2835447e-07
1.749498e-07
6.1923225e-08
1.9609653e-08
5.6712228e-09
1.5029279e-09
3.5981668e-10
7.5320956e-11
1.304094e-11
1.738813e-12
2.1775972e-13
1.0361397e-13
1.124749e-13
3.5425149e-05
1.0722211e-05
6.6156311e-06
7.8131513e-06
1.014473e-05
1.1529455e-05
1.2376344e-05
1.2391211e-05
1.2241961e-05
1.2125354e-05
7.7713109e-06
5.0192517e-06
4.3448952e-06
3.3239268e-06
2.1381873e-06
1.3734487e-06
8.3838805e-07
4.261811e-07
1.7396712e-07
6.1554028e-08
1.9489279e-08
5.636039e-09
1.4935968e-09
3.5759217e-10
7.4858765e-11
1.2961935e-11
1.7286951e-12
2.1680916e-13
1.0337228e-13
1.1218372e-13
3.5516502e-05
1.072142e-05
6.6076068e-06
7.7808453e-06
1.0112954e-05
1.1494463e-05
1.2340724e-05
1.2357106e-05
1.2207752e-05
1.2095673e-05
7.7493018e-06
5.0064371e-06
4.3356673e-06
3.3119891e-06
2.1303885e-06
1.3683597e-06
8.3503464e-07
4.2401949e-07
1.7299061e-07
6.1187373e-08
1.9369776e-08
5.6011163e-09
1.4843357e-09
3.5538435e-10
7.440003e-11
1.2883514e-11
1.7186504e-12
2.1586453e-13
1.0313138e-13
1.1189371e-13
3.5608094e-05
1.0720228e-05
6.599573e-06
7.7486569e-06
1.0081187e-05
1.1459525e-05
1.2305157e-05
1.232304e-05
1.217358e-05
1.2066023e-05
7.7273477e-06
4.9936519e-06
4.3264424e-06
3.3000936e-06
2.1226191e-06
1.3632887e-06
8.3169411e-07
4.2186842e-07
1.720195e-07
6.0822898e-08
1.9251008e-08
5.5664103e-09
1.4751318e-09
3.5319007e-10
7.3944074e-11
1.2805561e-11
1.7086633e-12
2.1492438e-13
1.0289092e-13
1.1160444e-13
3.56999e-05
1.0718669e-05
6.5915372e-06
7.716586e-06
1.0049427e-05
1.1424642e-05
1.2269644e-05
1.228902e-05
1.213945e-05
1.2036407e-05
7.7054508e-06
4.9808961e-06
4.3172195e-06
3.2882404e-06
2.1148792e-06
1.3582364e-06
8.2836749e-07
4.1972881e-07
1.7105439e-07
6.0460888e-08
1.9133084e-08
5.5319565e-09
1.4659954e-09
3.5101188e-10
7.3491448e-11
1.272817e-11
1.6987464e-12
2.1398977e-13
1.0265108e-13
1.1131617e-13
3.5791892e-05
1.0716807e-05
6.5835059e-06
7.6846325e-06
1.0017677e-05
1.1389819e-05
1.2234194e-05
1.2255052e-05
1.210536e-05
1.2006827e-05
7.6836123e-06
4.9681695e-06
4.3079978e-06
3.276428e-06
2.1071675e-06
1.3532017e-06
8.2505371e-07
4.175999e-07
1.7009482e-07
6.0101124e-08
1.901592e-08
5.497728e-09
1.4569187e-09
3.4884785e-10
7.304173e-11
1.2651269e-11
1.6888896e-12
2.130595e-13
1.0241132e-13
1.1102831e-13
3.5884042e-05
1.0714687e-05
6.57549e-06
7.6527988e-06
9.9859305e-06
1.1355054e-05
1.2198802e-05
1.2221132e-05
1.2071311e-05
1.1977287e-05
7.6618339e-06
4.955472e-06
4.2987767e-06
3.2646566e-06
2.0994844e-06
1.3481853e-06
8.2175356e-07
4.1548213e-07
1.6914109e-07
5.9743768e-08
1.8899581e-08
5.4637467e-09
1.4479083e-09
3.4669963e-10
7.2595285e-11
1.2574921e-11
1.6791019e-12
2.1213484e-13
1.0217234e-13
1.1074161e-13
3.5976322e-05
1.0712277e-05
6.5674966e-06
7.6211012e-06
9.9541911e-06
1.1320344e-05
1.2163468e-05
1.2187249e-05
1.2037302e-05
1.1947788e-05
7.6401181e-06
4.942804e-06
4.2895555e-06
3.2529238e-06
2.0918286e-06
1.3431857e-06
8.1846555e-07
4.1337441e-07
1.6819254e-07
5.9388506e-08
1.8783949e-08
5.429974e-09
1.4389531e-09
3.4456447e-10
7.2151526e-11
1.2499025e-11
1.6693702e-12
2.1121456e-13
1.0193383e-13
1.1045572e-13
3.6068701e-05
1.0709507e-05
6.5595347e-06
7.5895511e-06
9.9224671e-06
1.1285696e-05
1.2128192e-05
1.2153403e-05
1.200333e-05
1.1918333e-05
7.6184677e-06
4.930166e-06
4.2803336e-06
3.2412294e-06
2.0842e-06
1.3382034e-06
8.1519055e-07
4.1127761e-07
1.6724973e-07
5.9035602e-08
1.8669124e-08
5.3964427e-09
1.4300625e-09
3.4244474e-10
7.1710957e-11
1.2423669e-11
1.6597058e-12
2.1029962e-13
1.0169592e-13
1.1017083e-13
3.6161148e-05
1.0706351e-05
6.5516132e-06
7.5581547e-06
9.8907583e-06
1.1251109e-05
1.2092973e-05
1.21196e-05
1.1969401e-05
1.1888927e-05
7.5968845e-06
4.9175579e-06
4.2711099e-06
3.2295718e-06
2.0765976e-06
1.3332376e-06
8.1192766e-07
4.0919108e-07
1.6631223e-07
5.8684857e-08
1.855503e-08
5.363128e-09
1.4212294e-09
3.4033864e-10
7.1273189e-11
1.2348784e-11
1.6500994e-12
2.093889e-13
1.0145814e-13
1.0988641e-13
3.6253628e-05
1.0702833e-05
6.5437391e-06
7.5269125e-06
9.8590697e-06
1.1216588e-05
1.2057818e-05
1.208585e-05
1.1935512e-05
1.1859571e-05
7.5753698e-06
4.9049795e-06
4.2618835e-06
3.2179515e-06
2.0690214e-06
1.3282887e-06
8.0867755e-07
4.0711518e-07
1.6538032e-07
5.8336416e-08
1.8441724e-08
5.3300492e-09
1.4124594e-09
3.3824761e-10
7.0838543e-11
1.2274427e-11
1.6405588e-12
2.0848349e-13
1.0122105e-13
1.0960309e-13
3.6346107e-05
1.0699021e-05
6.5359262e-06
7.4958239e-06
9.8273992e-06
1.1182134e-05
1.202273e-05
1.2052155e-05
1.1901666e-05
1.1830268e-05
7.5539243e-06
4.8924303e-06
4.2526537e-06
3.2063662e-06
2.06147e-06
1.3233551e-06
8.054387e-07
4.0504879e-07
1.6445334e-07
5.7989968e-08
1.8329092e-08
5.2971695e-09
1.4037422e-09
3.3616909e-10
7.0406467e-11
1.2200502e-11
1.6310718e-12
2.075822e-13
1.0098434e-13
1.0932049e-13
3.6438549e-05
1.0694977e-05
6.5281848e-06
7.464895e-06
9.795743e-06
1.1147743e-05
1.1987702e-05
1.2018502e-05
1.1867863e-05
1.1801019e-05
7.5325498e-06
4.8799104e-06
4.2434197e-06
3.1948151e-06
2.0539433e-06
1.3184372e-06
8.022118e-07
4.029926e-07
1.6353175e-07
5.7645738e-08
1.821722e-08
5.2645175e-09
1.395086e-09
3.3410512e-10
6.9977401e-11
1.2127086e-11
1.6216482e-12
2.0668592e-13
1.0074816e-13
1.0903883e-13
3.6530918e-05
1.069069e-05
6.52053e-06
7.4341355e-06
9.7641011e-06
1.1113417e-05
1.1952737e-05
1.1984886e-05
1.1834099e-05
1.1771827e-05
7.5112485e-06
4.86742e-06
4.2341809e-06
3.1832974e-06
2.0464403e-06
1.3135341e-06
7.9899597e-07
4.0094598e-07
1.6261514e-07
5.7303544e-08
1.8106039e-08
5.2320705e-09
1.3864842e-09
3.3205406e-10
6.9550995e-11
1.2054118e-11
1.6122796e-12
2.0579364e-13
1.005121e-13
1.0875764e-13
3.6623174e-05
1.0686095e-05
6.5129755e-06
7.4035631e-06
9.7324823e-06
1.1079158e-05
1.1917829e-05
1.1951309e-05
1.1800373e-05
1.1742696e-05
7.4900215e-06
4.8549587e-06
4.2249361e-06
3.1718127e-06
2.0389613e-06
1.3086467e-06
7.9579205e-07
3.9890942e-07
1.6170384e-07
5.6963535e-08
1.7995606e-08
5.1998476e-09
1.3779425e-09
3.3001735e-10
6.9127558e-11
1.1981653e-11
1.6029739e-12
2.049065e-13
1.0027678e-13
1.0847761e-13
3.6715279e-05
1.0681151e-05
6.505531e-06
7.3731849e-06
9.7008916e-06
1.1044969e-05
1.1882985e-05
1.1917782e-05
1.1766689e-05
1.1713627e-05
7.4688697e-06
4.8425261e-06
4.2156845e-06
3.160359e-06
2.0315045e-06
1.3037732e-06
7.9259866e-07
3.9688194e-07
1.6079725e-07
5.6625432e-08
1.7885818e-08
5.167815e-09
1.3694512e-09
3.2799257e-10
6.8706574e-11
1.19096e-11
1.5937192e-12
2.0402336e-13
1.0004192e-13
1.081984e-13
3.680719e-05
1.067587e-05
6.4982118e-06
7.3430032e-06
9.6693292e-06
1.1010854e-05
1.1848215e-05
1.1884312e-05
1.1733048e-05
1.1684622e-05
7.4477937e-06
4.8301217e-06
4.2064251e-06
3.1489349e-06
2.0240698e-06
1.2989141e-06
7.8941638e-07
3.9486419e-07
1.5989582e-07
5.6289459e-08
1.7776759e-08
5.1360007e-09
1.3610184e-09
3.2598177e-10
6.8288486e-11
1.1838038e-11
1.5845256e-12
2.0314505e-13
9.9807606e-14
1.0792012e-13
3.6898864e-05
1.0670307e-05
6.4910298e-06
7.3130226e-06
9.6378004e-06
1.0976811e-05
1.1813507e-05
1.1850888e-05
1.169945e-05
1.1655683e-05
7.4267941e-06
4.8177451e-06
4.1971572e-06
3.1375401e-06
2.0166561e-06
1.2940678e-06
7.8624402e-07
3.9285534e-07
1.5899907e-07
5.59554e-08
1.7668349e-08
5.1043794e-09
1.3526369e-09
3.2398315e-10
6.7872907e-11
1.1766897e-11
1.5753839e-12
2.0227045e-13
9.9573306e-14
1.0764222e-13
3.6990256e-05
1.0664544e-05
6.484003e-06
7.283243e-06
9.6062951e-06
1.0942838e-05
1.1778862e-05
1.18175e-05
1.1665889e-05
1.1626812e-05
7.4058721e-06
4.8053958e-06
4.1878799e-06
3.1261742e-06
2.0092636e-06
1.2892354e-06
7.8308239e-07
3.908558e-07
1.5810728e-07
5.5623395e-08
1.7560646e-08
5.0729704e-09
1.3443124e-09
3.2199817e-10
6.7460156e-11
1.1696237e-11
1.5663022e-12
2.0140073e-13
9.9339704e-14
1.0736543e-13
3.7081322e-05
1.0658622e-05
6.4771489e-06
7.253675e-06
9.574813e-06
1.0908935e-05
1.1744279e-05
1.1784148e-05
1.1632364e-05
1.159801e-05
7.385028e-06
4.7930733e-06
4.1785922e-06
3.1148355e-06
2.0018907e-06
1.2844154e-06
7.7993026e-07
3.8886468e-07
1.5721989e-07
5.5293178e-08
1.7453548e-08
5.0417398e-09
1.3360352e-09
3.200244e-10
6.7049707e-11
1.1625963e-11
1.5572684e-12
2.0053479e-13
9.9106536e-14
1.0708942e-13
3.7172013e-05