/*--------------------------------*- C++ -*----------------------------------*\
| =========                 |                                                 |
| \\      /  F ield         | OpenFOAM: The Open Source CFD Toolbox           |
|  \\    /   O peration     | Version:  v2012                                 |
|   \\  /    A nd           | Website:  www.openfoam.com                      |
|    \\/     M anipulation  |                                                 |
\*---------------------------------------------------------------------------*/
FoamFile
{
    version     2.0;
    format      ascii;
    class       volScalarField;
    location    "650";
    object      omega;
}
// * * * * * * * * * * * * * * * * * * * * * * * * * * * * * * * * * * * * * //

dimensions      [0 0 -1 0 0 0 0];


internalField   nonuniform List<scalar> 
24000
(
3547.7405
8541.1142
24091.346
57272.186
95164.211
129583.28
158818.35
177386.41
179744.35
178370.06
214563.58
363613.72
665754.6
1050419.3
1524835.2
2022554.4
2561973.1
3259555.3
4330229.8
6118443.4
9178791.2
14469634
23794826
40841740
73862028
1.435868e+08
3.1111172e+08
8.036017e+08
2.834003e+09
1.8484221e+10
3539.0458
8510.8089
23983.847
57046.165
94923.684
129357.28
158604.32
177227.21
179652.98
178289.53
214418.14
363261.09
665275.17
1050151
1524602.4
2022243.4
2561736
3259602
4330756.2
6119682.7
9181146.8
14473864
23802337
40855246
73887271
1.4363753e+08
3.1122691e+08
8.0392267e+08
2.8352917e+09
1.8489816e+10
3530.3302
8479.6835
23875.969
56835.066
94717.168
129175.54
158458.78
177134.11
179598.06
178228.55
214320.81
363077.13
664987.01
1050031.2
1524310.9
2021519.9
2560719
3258717.6
4330576.5
6120756
9183912.5
14478767
23810131
40867447
73906900
1.4367049e+08
3.1128393e+08
8.0401289e+08
2.8352472e+09
1.8495845e+10
3521.4282
8448.1812
23769.209
56626.534
94510.801
128990.46
158307.66
177026.73
179525.73
178156.16
214237.62
362944.5
664707.93
1049873.6
1523862.5
2020518.7
2559332.8
3257306.7
4329543.1
6120483.8
9184800.8
14481363
23815372
40877098
73924519
1.4370384e+08
3.1135196e+08
8.0416937e+08
2.8356736e+09
1.8500798e+10
3512.4008
8416.4428
23662.787
56418.7
94304.85
128805.29
158157.4
176917.84
179450.28
178082.75
214168.52
362863.04
664485.73
1049793
1523503.2
2019620.4
2558076.8
3256088
4328820.2
6120704.5
9186416.7
14484967
23821981
40888658
73944965
1.4374171e+08
3.1142768e+08
8.0433848e+08
2.8361007e+09
1.8506502e+10
3503.272
8384.5955
23556.807
56211.389
94099.089
128619.95
158007.22
176807.5
179372.14
178007.87
214109.06
362817.57
664304.75
1049772
1523211.5
2018785.4
2556872.1
3254908.8
4328133.4
6120974.4
9188122.2
14488746
23828921
40900833
73966566
1.4378184e+08
3.1150827e+08
8.0451985e+08
2.8365692e+09
1.8512501e+10
3494.0593
8352.6912
23451.232
56004.377
93893.388
128434.54
157857.24
176696.45
179292.28
177932.4
214057.03
362798.52
664155.37
1049796.3
1522971.8
2017999.3
2555709.2
3253768.4
4327492.5
6121311.2
9189933.2
14492694
23836139
40913474
73988988
1.4382351e+08
3.1159202e+08
8.0470877e+08
2.8370605e+09
1.8518709e+10
3484.7725
8320.7558
23346.044
55797.561
93687.654
128249.05
157707.38
176584.91
179211.17
177856.62
214010.51
362798.59
664028.34
1049852
1522767.4
2017246.3
2554574.2
3252653.5
4326881.9
6121692.7
9191815.8
14496758
23843546
40926430
74011950
1.4386617e+08
3.116777e+08
8.049018e+08
2.8375611e+09
1.8525064e+10
3475.4172
8288.7977
23241.219
55590.869
93481.823
128063.47
157557.59
176472.98
179129.31
177780.75
213968.25
362812.67
663917.08
1049929.2
1522586.5
2016515.1
2553457.5
3251555.1
4326289.9
6122100.5
9193739.8
14500890
23851064
40939572
74035235
1.4390941e+08
3.1176448e+08
8.0509707e+08
2.8380655e+09
1.8531511e+10
3465.9964
8256.8182
23136.734
55384.251
93275.848
127877.78
157407.77
176360.7
179046.95
177704.91
213929.35
362837.29
663817.09
1050021.1
1522421.5
2015798.9
2552354.2
3250469.7
4325713.5
6122530.4
9195697.4
14505074
23858664
40952847
74058738
1.4395301e+08
3.1185189e+08
8.0529327e+08
2.8385689e+09
1.8538025e+10
3456.5114
8224.815
23032.568
55177.673
93069.701
127691.95
157257.88
176248.11
178964.22
177629.15
213893.19
362870.09
663725.28
1050122.8
1522266.7
2015092.4
2551259.6
3249392.8
4325146.6
6122972.7
9197673
14509285
23866308
40966190
74082348
1.4399679e+08
3.1193953e+08
8.0548945e+08
2.8390684e+09
1.8544579e+10
3446.9627
8192.7841
22928.704
54971.109
92863.36
127505.96
157107.87
176135.22
178881.19
177553.54
213859.33
362909.39
663639.56
1050231
1522118.2
2014392.3
2550171.6
3248322.9
4324588.3
6123426.1
9199663.6
14513518
23873982
40979578
74106025
1.4404064e+08
3.120272e+08
8.0568511e+08
2.8395624e+09
1.855116e+10
3437.3506
8160.7211
22825.125
54764.538
92656.808
127319.81
156957.7
176022.01
178797.9
177478.08
213827.42
362953.95
663558.41
1050343.5
1521973.2
2013695.6
2549087.3
3247257.4
4324034.9
6123885
9201660.6
14517758
23881667
40992979
74129709
1.4408447e+08
3.1211469e+08
8.0587975e+08
2.840049e+09
1.8557757e+10
3427.675
8128.6216
22721.819
54557.944
92450.035
127133.47
156807.34
175908.49
178714.36
177402.79
213797.2
363002.87
663480.84
1050458.6
1521830.1
2013001.1
2548006.2
3246196.4
4323487.3
6124350.8
9203665.6
14522008
23889362
41006388
74153392
1.4412826e+08
3.1220193e+08
8.0607317e+08
2.8405277e+09
1.8564363e+10
3417.9361
8096.4816
22618.772
54351.315
92243.031
126946.93
156656.77
175794.66
178630.58
177327.7
213768.5
363055.5
663406.04
1050575.1
1521687.2
2012307.2
2546926.8
3245137.9
4322942.7
6124819.1
9205671.6
14526256
23897051
41019782
74177034
1.4417193e+08
3.122888e+08
8.0626512e+08
2.8409977e+09
1.857097e+10
3408.1338
8064.2975
22515.975
54144.641
92035.791
126760.18
156505.95
175680.5
178546.57
177252.8
213741.19
363111.39
663333.46
1050692.1
1521543.5
2011613
2545848.5
3244082.1
4322401.6
6125290.8
9207679.9
14530505
23904735
41033161
74200636
1.4421548e+08
3.123753e+08
8.0645558e+08
2.8414593e+09
1.8577576e+10
3398.2684
8032.066
22413.417
53937.91
91828.309
126573.21
156354.88
175566.01
178462.34
177178.11
213715.16
363170.2
663262.74
1050808.9
1521398.2
2010917.7
2544770.4
3243027.4
4321861.9
6125762.7
9209685.7
14534747
23912406
41046512
74224175
1.4425888e+08
3.1246136e+08
8.0664442e+08
2.841912e+09
1.8584178e+10
3388.34
7999.7839
22311.091
53731.118
91620.581
126386.01
156203.54
175451.19
178377.92
177103.62
213690.31
363231.71
663193.74
1050925.3
1521251.1
2010221.4
2543693
3241975.1
4321325.4
6126237.6
9211693.1
14538987
23920068
41059841
74247661
1.4430214e+08
3.12547e+08
8.0683169e+08
2.8423562e+09
1.8590776e+10
3378.349
7967.4486
22208.991
53524.254
91412.606
126198.57
156051.91
175336.02
178293.3
177029.34
213666.56
363295.65
663126.25
1051040.9
1521101.7
2009523.5
2542615.5
3240924
4320790.2
6126712.2
9213696.7
14543217
23927712
41073134
74271071
1.4434523e+08
3.1263217e+08
8.0701732e+08
2.8427919e+09
1.8597366e+10
3368.2961
7935.0579
22107.109
53317.314
91204.377
126010.88
155899.99
175220.52
178208.49
176955.26
213643.85
363361.83
663060.1
1051155.6
1520949.9
2008823.9
2541538.3
3239874.9
4320257.8
6127188.8
9215700
14547443
23935344
41086398
74294416
1.4438816e+08
3.127169e+08
8.072014e+08
2.8432195e+09
1.8603948e+10
3358.1818
7902.6101
22005.439
53110.292
90995.896
125822.93
155747.77
175104.68
178123.49
176881.39
213622.1
363430.1
662995.1
1051268.7
1520794.9
2008121.7
2540460.1
3238826.3
4319726
6127664.3
9217698.4
14551658
23942953
41099621
74317679
1.444309e+08
3.1280114e+08
8.0738385e+08
2.8436389e+09
1.8610519e+10
3348.007
7870.1031
21903.975
52903.183
90787.16
125634.73
155595.24
174988.49
178038.28
176807.71
213601.28
363500.35
662931.19
1051380.3
1520636.7
2007417.3
2539381.7
3237779.2
4319196.7
6128141.9
9219696.7
14555869
23950551
41112816
74340879
1.4447349e+08
3.1288495e+08
8.0756478e+08
2.8440505e+09
1.861708e+10
3337.7723
7837.5353
21802.713
52695.981
90578.168
125446.25
155442.39
174871.94
177952.87
176734.23
213581.32
363572.46
662868.29
1051490.2
1520475.1
2006710.2
2538302.4
3236732.5
4318667.7
6128617.7
9221689.3
14560068
23958126
41125969
74363995
1.4451589e+08
3.1296828e+08
8.0774418e+08
2.8444545e+09
1.8623629e+10
3327.4789
7804.9052
21701.648
52488.682
90368.918
125257.49
155289.21
174755.03
177867.27
176660.95
213562.17
363646.35
662806.46
1051598.4
1520310.2
2006000.7
2537222.6
3235687.2
4318140.8
6129094.7
9223680.3
14564260
23965686
41139091
74387044
1.4455815e+08
3.1305121e+08
8.0792218e+08
2.8448516e+09
1.8630166e+10
3317.1278
7772.2117
21600.776
52281.28
90159.408
125068.45
155135.7
174637.76
177781.49
176587.87
213543.8
363721.95
662745.66
1051705
1520141.9
2005288.4
2536141.9
3234642.3
4317614.3
6129570.2
9225665.8
14568440
23973223
41152171
74410012
1.4460022e+08
3.1313369e+08
8.0809874e+08
2.8452417e+09
1.8636689e+10
3306.7202
7739.4537
21500.09
52073.77
89949.64
124879.12
154981.85
174520.14
177695.54
176514.98
213526.17
363799.21
662685.96
1051809.9
1519970.2
2004573.7
2535060.8
3233599
4317090.5
6130047.8
9227651.1
14572615
23980749
41165223
74432919
1.4464215e+08
3.1321578e+08
8.0827398e+08
2.8456252e+09
1.8643201e+10
3296.2574
7706.6303
21399.587
51866.148
89739.608
124689.49
154827.65
174402.21
177609.42
176442.28
213509.23
363878.07
662627.27
1051912.9
1519794.9
2003856.1
2533978.6
3232555.9
4316566.8
6130523.6
9229630.6
14576779
23988251
41178233
74455744
1.4468391e+08
3.1329745e+08
8.0844788e+08
2.8460025e+09
1.8649699e+10
3285.7408
7673.7403
21299.264
51658.41
89529.316
124499.56
154673.12
174283.95
177523.12
176369.75
213492.93
363958.43
662569.57
1052014
1519615.9
2003135.8
2532895.7
3231513.9
4316044.9
6131000.2
9231608.1
14580935
23995738
41191212
74478506
1.4472553e+08
3.1337876e+08
8.0862065e+08
2.8463744e+09
1.8656186e+10
3275.1719
7640.7827
21199.117
51450.549
89318.762
124309.31
154518.23
174165.36
177436.63
176297.4
213477.23
364040.18
662512.83
1052113.2
1519433.2
2002412.6
2531811.6
3230472.1
4315523.1
6131474.8
9233579.5
14585079
24003202
41204150
74501189
1.4476699e+08
3.1345967e+08
8.087922e+08
2.8467409e+09
1.8662658e+10
3264.5523
7607.7569
21099.141
51242.564
89107.942
124118.76
154362.98
174046.44
177349.97
176225.23
213462.09
364123.32
662457.16
1052210.6
1519247.1
2001686.9
2530727.3
3229431.9
4315003.8
6131951.3
9235550.5
14589218
24010653
41217061
74523816
1.4480831e+08
3.1354024e+08
8.0896266e+08
2.8471022e+09
1.866912e+10
3253.884
7574.6629
20999.332
51034.446
88896.859
123927.88
154207.37
173927.2
177263.14
176153.23
213447.47
364207.78
662402.49
1052306.1
1519057.2
2000958.2
2529641.8
3228391.9
4314484.7
6132426
9237515.6
14593345
24018083
41229932
74546368
1.4484948e+08
3.1362045e+08
8.0913204e+08
2.8474587e+09
1.8675566e+10
3243.1686
7541.5005
20899.686
50826.194
88685.509
123736.68
154051.39
173807.62
177176.16
176081.4
213433.32
364293.53
662348.9
1052399.8
1518863.7
2000226.9
2528555.7
3227353.2
4313967.6
6132901.7
9239479.3
14597466
24025498
41242776
74568864
1.4489053e+08
3.1370036e+08
8.0930053e+08
2.8478113e+09
1.8682e+10
3232.4077
7508.2691
20800.2
50617.801
88473.892
123545.14
153895.05
173687.72
177089.04
176009.73
213419.61
364380.51
662296.4
1052491.6
1518666.5
1999492.7
2527468.4
3226314.5
4313450.3
6133375.4
9241436.9
14601575
24032892
41255580
74591287
1.4493144e+08
3.1377993e+08
8.09468e+08
2.8481594e+09
1.8688417e+10
3221.6031
7474.9683
20700.874
50409.264
88262.009
123353.27
153738.33
173567.52
177001.77
175938.21
213406.29
364468.66
662245.06
1052581.9
1518466.1
1998756.3
2526381
3225277.6
4312935.8
6133851.4
9243394.7
14605680
24040275
41268362
74613663
1.4497223e+08
3.1385923e+08
8.096346e+08
2.8485036e+09
1.8694824e+10
3210.7568
7441.5977
20601.704
50200.578
88049.857
123161.07
153581.25
173447
176914.34
175866.84
213393.29
364557.86
662194.75
1052670.3
1518262
1998017
2525292.6
3224241.1
4312421.5
6134325.4
9245346.4
14609772
24047637
41281105
74635968
1.4501289e+08
3.1393821e+08
8.0980032e+08
2.8488442e+09
1.8701214e+10
3199.871
7408.1575
20502.686
49991.738
87837.437
122968.52
153423.79
173326.17
176826.77
175795.6
213380.59
364648.08
662145.5
1052756.8
1518054.2
1997275
2524203.7
3223206
4311909.5
6134800.8
9247297.2
14613860
24054986
41293824
74658226
1.4505345e+08
3.1401697e+08
8.0996539e+08
2.8491823e+09
1.8707592e+10
3188.948
7374.6479
20403.817
49782.741
87624.745
122775.62
153265.95
173205.04
176739.06
175724.51
213368.12
364739.24
662097.3
1052841.4
1517842.5
1996529.9
2523113.4
3222170.7
4311397.2
6135273.9
9249241.5
14617935
24062313
41306505
74680416
1.4509388e+08
3.1409544e+08
8.101297e+08
2.8495175e+09
1.8713956e+10
3177.9902
7341.0692
20305.093
49573.581
87411.784
122582.37
153107.72
173083.59
176651.22
175653.54
213355.84
364831.31
662050.26
1052924.6
1517627.7
1995782.7
2522022.9
3221137.2
4310887.6
6135749.4
9251186.6
14622007
24069632
41319168
74702567
1.4513422e+08
3.141737e+08
8.1029339e+08
2.8498501e+09
1.872031e+10
3166.9996
7307.4216
20206.511
49364.255
87198.552
122388.77
152949.12
172961.84
176563.29
175582.7
213343.7
364924.21
662004.41
1053006.1
1517409.3
1995032.7
2520931.6
3220104
4310378.1
6136222.8
9253125.5
14626068
24076929
41331793
74724651
1.4517444e+08
3.1425169e+08
8.1045641e+08
2.8501805e+09
1.8726648e+10
3155.9785
7273.7051
20108.073
49154.759
86985.048
122194.81
152790.14
172839.81
176475.25
175511.97
213331.65
365017.87
661959.7
1053086.2
1517187.7
1994280.4
2519840.1
3219072.6
4309871.1
6136698.1
9255064.1
14630124
24084217
41344398
74746695
1.4521457e+08
3.1432949e+08
8.1061897e+08
2.8505095e+09
1.8732975e+10
3144.9293
7239.9203
20009.776
48945.087
86771.273
122000.49
152630.77
172717.5
176387.1
175441.34
213319.6
365112.18
661916.01
1053164.6
1516962.2
1993525
2518747.1
3218040.8
4309363.7
6137170.8
9256995.9
14634166
24091481
41356964
74768674
1.4525458e+08
3.1440705e+08
8.1078092e+08
2.8508364e+09
1.8739285e+10
3133.8547
7206.0683
19911.616
48735.236
86557.222
121805.81
152471.02
172594.91
176298.86
175370.8
213307.46
365207.08
661873.43
1053241.8
1516733.5
1992767.4
2517654
3217011
4308859.3
6137646.4
9258929.2
14638208
24098740
41369517
74790621
1.4529453e+08
3.1448445e+08
8.1094241e+08
2.8511616e+09
1.8745584e+10
3122.7572
7172.1507
19813.591
48525.201
86342.899
121610.76
152310.9
172472.05
176210.51
175300.36
213295.19
365302.47
661831.88
1053317.7
1516501.3
1992007
2516559.9
3215981.2
4308354.5
6138119.3
9260855.7
14642237
24105977
41382032
74812505
1.4533436e+08
3.1456162e+08
8.1110338e+08
2.8514853e+09
1.8751866e+10
3111.6396
7138.169
19715.698
48314.98
86128.303
121415.35
152150.38
172348.92
176122.1
175230.01
213282.8
365398.28
661791.34
1053392.5
1516265.8
1991244.4
2515465.7
3214953.2
4307852.3
6138594.1
9262782.1
14646262
24113205
41394530
74834356
1.4537412e+08
3.1463866e+08
8.1126408e+08
2.8518085e+09
1.8758136e+10
3100.5043
7104.124
19617.939
48104.57
85913.431
121219.57
151989.49
172225.53
176033.63
175159.73
213270.24
365494.46
661751.79
1053465.4
1516026.6
1990479
2514370.3
3213925.2
4307349.8
6139066.4
9264701.8
14650275
24120411
41406992
74856147
1.4541379e+08
3.147155e+08
8.1142435e+08
2.8521309e+09
1.876439e+10
3089.3542
7070.022
19520.312
47893.97
85698.287
121023.42
151828.23
172101.91
175945.13
175089.52
213257.43
365590.96
661713.24
1053536.7
1515784.4
1989711.7
2513275.2
3212899.3
4306850.6
6139542
9266623.7
14654287
24127612
41419443
74877912
1.4545339e+08
3.1479223e+08
8.1158435e+08
2.8524526e+09
1.8770635e+10
3078.1921
7035.888
19422.816
47683.177
85482.868
120826.9
151666.58
171978.06
175856.57
175019.36
213244.3
365687.62
661675.53
1053606.1
1515538.5
1988941.5
2512179
3211873.5
4306351.2
6140015.2
9268539.1
14658287
24134793
41431858
74899620
1.454929e+08
3.1486877e+08
8.1174401e+08
2.8527739e+09
1.8776865e+10
3067.0211
7001.7239
19325.449
47472.186
85267.175
120630
151504.57
171853.98
175767.98
174949.26
213230.8
365784.38
661638.69
1053673.8
1515289.3
1988169.1
2511082.7
3210849.6
4305854.4
6140490.3
9270454.6
14662284
24141965
41444258
74921300
1.4553236e+08
3.1494522e+08
8.1190355e+08
2.8530957e+09
1.8783083e+10
3055.8438
6967.5312
19228.209
47260.988
85051.209
120432.74
151342.18
171729.7
175679.36
174879.19
213216.9
365881.11
661602.67
1053739.6
1515036.5
1987394
2509985.3
3209825.7
4305357.3
6140963.1
9272363.6
14666268
24149117
41456625
74942924
1.4557172e+08
3.1502151e+08
8.120628e+08
2.8534173e+09
1.8789286e+10
3044.6634
6933.3116
19131.115
47049.577
84834.926
120235.1
151179.43
171605.21
175590.73
174809.16
213202.56
365977.78
661567.54
1053803.8
1514780.7
1986617.1
2508888.3
3208804.1
4304863.7
6141439.4
9274275.1
14670253
24156266
41468982
74964528
1.4561104e+08
3.1509771e+08
8.1222191e+08
2.8537389e+09
1.8795479e+10
3033.4828
6899.0671
19034.193
46837.979
84618.254
120037.08
151016.31
171480.53
175502.13
174739.16
213187.73
366074.31
661533.24
1053866.3
1514521.5
1985837.6
2507790.5
3207782.8
4304370.2
6141913.5
9276180.5
14674226
24163395
41481306
74986077
1.4565027e+08
3.1517376e+08
8.1238078e+08
2.8540606e+09
1.8801656e+10
3022.3053
6864.7995
18937.444
46626.498
84401.189
119838.69
150852.83
171355.68
175413.56
174669.17
213172.33
366170.59
661499.72
1053927.1
1514259.1
1985056
2506692.7
3206763.4
4303879.2
6142389.7
9278086.2
14678196
24170517
41493617
75007602
1.4568946e+08
3.1524974e+08
8.1253962e+08
2.8543832e+09
1.8807821e+10
3011.1339
6830.5116
18840.867
46415.229
84183.732
119639.93
150688.99
171230.66
175325.01
174599.18
213156.31
366266.49
661466.86
1053986
1513993.1
1984271.7
2505593.9
3205744.1
4303388
6142863.4
9279985.5
14682155
24177618
41505895
75029075
1.4572856e+08
3.1532559e+08
8.1269826e+08
2.8547061e+09
1.8813969e+10
2999.9719
6796.2062
18744.459
46204.176
83965.878
119440.79
150524.8
171105.51
175236.5
174529.2
213139.64
366361.92
661434.73
1054043.4
1513724.2
1983485.8
2504495.6
3204727.2
4302900.4
6143340.7
9281887.3
14686114
24184717
41518165
75050532
1.4576763e+08
3.1540138e+08
8.1285687e+08
2.8550297e+09
1.8820108e+10
2988.8227
6761.8862
18648.221
45993.346
83747.628
119241.27
150360.27
170980.21
175148.04
174459.22
213122.27
366456.77
661403.19
1054099
1513451.9
1982697.3
2503396.5
3203710.8
4302412.9
6143816.1
9283783.4
14690061
24191797
41530405
75071941
1.4580663e+08
3.1547707e+08
8.130154e+08
2.8553543e+09
1.8826233e+10
2977.6897
6727.5551
18552.154
45782.745
83528.981
119041.37
150195.39
170854.79
175059.67
174389.23
213104.15
366551.01
661372.33
1054153
1513176.5
1981906.8
2502297.6
3202696.3
4301928.2
6144293.7
9285680
14694006
24198870
41542633
75093329
1.458456e+08
3.1555273e+08
8.1317403e+08
2.8556806e+09
1.8832347e+10
2966.5762
6693.2163
18456.257
45572.378
83309.933
118841.09
150030.17
170729.27
174971.41
174319.22
213085.23
366644.52
661342.08
1054205.4
1512897.8
1981113.9
2501197.8
3201682
4301443.5
6144769.4
9287571.1
14697941
24205926
41554832
75114672
1.4588449e+08
3.1562828e+08
8.1333259e+08
2.8560078e+09
1.8838448e+10
2955.4858
6658.8739
18360.533
45362.254
83090.485
118640.43
149864.62
170603.66
174883.26
174249.18
213065.47
366737.22
661312.46
1054256.3
1512616.4
1980319.4
2500098.5
3200670.1
4300962.1
6145248.3
9289464.3
14701876
24212979
41567024
75135999
1.4592336e+08
3.1570379e+08
8.1349119e+08
2.8563362e+09
1.8844539e+10
2944.4221
6624.5323
18264.982
45152.378
82870.634
118439.39
149698.75
170477.98
174795.22
174179.11
213044.81
366828.93
661283.3
1054305.6
1512331.8
1979522.7
2498998.8
3199658.9
4300481.1
6145725.6
9291352.3
14705800
24220014
41579187
75157282
1.4596216e+08
3.1577921e+08
8.1364977e+08
2.8566658e+09
1.8850615e+10
2933.3888
6590.1963
18169.604
44942.758
82650.379
118237.97
149532.56
170352.24
174707.31
174109
213023.22
366919.58
661254.57
1054353.2
1512044.2
1978724.1
2497899.2
3198649.6
4300002.9
6146205.1
9293240.9
14709723
24227043
41591339
75178547
1.4600093e+08
3.1585461e+08
8.1380852e+08
2.8569974e+09
1.8856681e+10
2922.3895
6555.8712
18074.401
44733.401
82429.721
118036.17
149366.06
170226.46
174619.55
174038.85
213000.64
367009.08
661226.24
1054399.2
1511753.3
1977923
2496798.8
3197640.7
4299524.8
6146682.9
9295124.3
14713635
24234056
41603465
75199771
1.4603965e+08
3.1592995e+08
8.1396728e+08
2.8573303e+09
1.8862732e+10
2911.4282
6521.5622
17979.376
44524.317
82208.656
117833.99
149199.25
170100.64
174531.98
173968.66
212977.05
367097.39
661198.43
1054443.9
1511459.9
1977120.6
2495699
3196634.1
4299050
6147163.9
9297009.9
14717548
24241066
41615585
75220983
1.4607835e+08
3.1600527e+08
8.1412616e+08
2.8576647e+09
1.8868773e+10
2900.5086
6487.2751
17884.531
44315.513
81987.188
117631.42
149032.14
169974.82
174444.61
173898.42
212952.4
367184.39
661171.03
1054487.1
1511163.6
1976316.2
2494599
3195628.4
4298575.9
6147643.8
9298891
14721451
24248061
41627679
75242158
1.4611699e+08
3.1608053e+08
8.142851e+08
2.8580006e+09
1.88748e+10
2889.6345
6453.0157
17789.87
44106.998
81765.313
117428.47
148864.73
169849.01
174357.44
173828.12
212926.65
367269.91
661143.94
1054528.9
1510864.6
1975510.1
2493499.5
3194625
4298104.9
6148126.3
9300773.1
14725353
24255050
41639765
75263319
1.4615561e+08
3.161558e+08
8.1444426e+08
2.8583388e+09
1.8880816e+10
2878.8101
6418.7908
17695.396
43898.783
81543.031
117225.14
148697.04
169723.22
174270.48
173757.76
212899.76
367353.87
661117.05
1054569.1
1510562.4
1974701.8
2492399.2
3193622.1
4297634.3
6148607.5
9302650.8
14729246
24262025
41651826
75284443
1.4619418e+08
3.1623102e+08
8.146035e+08
2.8586786e+09
1.8886821e+10
2868.0395
6384.6073
17601.111
43690.875
81320.343
117021.42
148529.06
169597.46
174183.75
173687.35
212871.69
367436.19
661090.43
1054608
1510257.8
1973892
2491299.4
3192621.3
4297166.8
6149091.7
9304530.7
14733140
24268997
41663882
75305557
1.4623274e+08
3.1630623e+08
8.1476292e+08
2.8590203e+09
1.8892817e+10
2857.3268
6350.4723
17507.019
43483.285
81097.246
116817.31
148360.79
169471.74
174097.28
173616.89
212842.42
367516.8
661064.03
1054645.4
1509950.3
1973080.3
2490199.3
3191621.3
4296699.7
6149574.4
9306405.6
14737024
24275954
41675914
75326633
1.4627125e+08
3.1638139e+08
8.1492244e+08
2.859364e+09
1.8898801e+10
2846.6761
6316.3933
17413.125
43276.024
80873.744
116612.81
148192.26
169346.09
174011.09
173546.36
212811.93
367595.62
661037.87
1054681.7
1509640.6
1972267.4
2489100.1
3190623.7
4296235.8
6150059.9
9308282
14740907
24282908
41687938
75347699
1.4630974e+08
3.1645658e+08
8.1508227e+08
2.8597103e+09
1.8904775e+10
2836.0915
6282.3778
17319.435
43069.103
80649.837
116407.93
148023.45
169220.53
173925.18
173475.77
212780.16
367672.49
661011.82
1054716.5
1509328.1
1971452.6
2488000.4
3189626.9
4295772.6
6150544.5
9310154.2
14744782
24289846
41699939
75368729
1.4634819e+08
3.1653172e+08
8.1524221e+08
2.8600585e+09
1.8910737e+10
2825.5772
6248.4337
17225.952
42862.533
80425.524
116202.64
147854.38
169095.05
173839.57
173405.12
212747.11
367747.34
660985.86
1054750.2
1509013.2
1970636.5
2486901.5
3188632.8
4295313.1
6151033
9312029.7
14748659
24296785
41711938
75389755
1.4638664e+08
3.1660688e+08
8.1540239e+08
2.8604086e+09
1.8916692e+10
2815.1375
6214.5692
17132.684
42656.326
80200.807
115996.97
147685.04
168969.68
173754.25
173334.41
212712.73
367820.07
660959.88
1054782.4
1508695.5
1969818.5
2485802.3
3187639.2
4294854
6151519.9
9313900.5
14752526
24303708
41723914
75410747
1.4642504e+08
3.1668201e+08
8.1556272e+08
2.8607608e+09
1.8922634e+10
2804.7765
6180.7931
17039.636
42450.492
79975.684
115790.89
147515.44
168844.4
173669.27
173263.63
212677.01
367890.64
660933.94
1054813.3
1508375.6
1968999.3
2484703.7
3186647.9
4294397.9
6152009.5
9315772.6
14756393
24310629
41735884
75431731
1.4646344e+08
3.1675718e+08
8.1572336e+08
2.8611155e+09
1.8928566e+10
2794.4984
6147.1142
16946.813
42245.046
79750.16
115584.4
147345.57
168719.26
173584.63
173192.8
212639.93
367958.95
660908
1054843
1508053.1
1968178.4
2483605
3185657.6
4293942.3
6152497.9
9317640.4
14760252
24317535
41747832
75452683
1.4650179e+08
3.1683232e+08
8.1588413e+08
2.8614721e+09
1.8934484e+10
2784.3076
6113.5412
16854.222
42039.999
79524.235
115377.51
147175.44
168594.25
173500.35
173121.9
212601.47
368024.94
660882.11
1054871.7
1507728.8
1967356.7
2482507.5
3184670.3
4293491.1
6152990.9
9319512.4
14764113
24324443
41759780
75473636
1.4654015e+08
3.169075e+08
8.1604517e+08
2.8618308e+09
1.8940396e+10
2774.2081
6080.0831
16761.87
41835.365
79297.911
115170.21
147005.05
168469.38
173416.41
173050.93
212561.61
368088.49
660856.09
1054899.2
1507401.9
1966533.3
2481409.8
3183683.9
4293040.6
6153482.9
9321380.3
14767966
24331337
41771707
75494556
1.4657847e+08
3.1698265e+08
8.1620639e+08
2.8621917e+09
1.8946297e+10
2764.2043
6046.7488
16669.765
41631.157
79071.192
114962.49
146834.39
168344.65
173332.83
172979.9
212520.32
368149.55
660829.92
1054925.4
1507072.7
1965708.6
2480312.8
3182699.8
4292593.2
6153977.8
9323250.2
14771820
24338230
41783629
75515472
1.4661679e+08
3.1705785e+08
8.1636796e+08
2.8625553e+09
1.895219e+10
2754.3
6013.5476
16577.915
41427.389
78844.079
114754.34
146663.46
168220.06
173249.63
172908.78
212477.59
368208.06
660803.58
1054950.3
1506741
1964882.3
2479215.5
3181716.2
4292146
6154471.2
9325115.3
14775665
24345108
41795530
75536354
1.4665506e+08
3.1713302e+08
8.165297e+08
2.8629211e+09
1.8958072e+10
2744.4995
5980.4887
16486.329
41224.075
78616.574
114545.77
146492.26
168095.63
173166.81
172837.59
212433.41
368264.01
660777.2
1054974.3
1506407.6
1964055.4
2478119.6
3180735.9
4291703.2
6154969.3
9326984.9
14779513
24351989
41807433
75557241
1.4669335e+08
3.1720825e+08
8.1669177e+08
2.8632893e+09
1.8963949e+10
2734.8068
5947.5817
16395.015
41021.229
78388.681
114336.76
146320.77
167971.34
173084.37
172766.3
212387.76
368317.31
660750.67
1054997.2
1506072
1963227.1
2477023.9
3179756.9
4291261.5
6155466.7
9328850.9
14783354
24358857
41819316
75578098
1.4673161e+08
3.1728346e+08
8.1685403e+08
2.8636597e+09
1.8969815e+10
2725.2258
5914.8359
16303.98
40818.866
78160.404
114127.31
146149.01
167847.21
173002.32
172694.9
212340.62
368367.92
660723.96
1055019.1
1505734.3
1962397.8
2475929.1
3178780.5
4290823.4
6155967.7
9330719.5
14787196
24365724
41831198
75598956
1.4676987e+08
3.1735874e+08
8.170167e+08
2.8640329e+09
1.8975673e+10
2715.7603
5882.2607
16213.233
40617.001
77931.746
113917.41
145976.95
167723.23
172920.63
172623.38
212291.96
368415.81
660697.03
1055039.7
1505394.2
1961566.8
2474834
3177804.7
4290385.6
6156467.4
9332584
14791030
24372579
41843060
75619785
1.468081e+08
3.17434e+08
8.1717955e+08
2.8644082e+09
1.8981521e+10
2706.4142
5849.8651
16122.784
40415.648
77702.714
113707.06
145804.58
167599.38
172839.33
172551.71
212241.78
368461.02
660669.99
1055059.4
1505052.4
1960735.3
2473740.2
3176831.9
4289952
6156971.8
9334453.3
14794869
24379438
41854926
75640621
1.4684635e+08
3.1750933e+08
8.1734271e+08
2.8647855e+09
1.8987364e+10
2697.191
5817.6582
16032.644
40214.825
77473.312
113496.24
145631.9
167475.67
172758.41
172479.88
212190.06
368503.53
660642.81
1055078.2
1504708.6
1959902.6
2472646.7
3175860.4
4289519.3
6157475.5
9336318.7
14798699
24386284
41866773
75661430
1.4688456e+08
3.1758464e+08
8.1750604e+08
2.8651649e+09
1.8993195e+10
2688.0942
5785.6492
15942.822
40014.547
77243.545
113284.95
145458.9
167352.08
172677.87
172407.84
212136.76
368543.38
660615.54
1055096
1504363
1959069.2
2471554.4
3174891.7
4289090.6
6157983.1
9338187.4
14802532
24393131
41878620
75682240
1.4692279e+08
3.1766003e+08
8.1766976e+08
2.8655471e+09
1.8999019e+10
2679.1274
5753.8469
15853.329
39814.827
77013.419
113073.18
145285.56
167228.61
172597.68
172335.58
212081.86
368580.62
660588.13
1055112.7
1504015.2
1958234.3
2470462
3173924
4288662.6
6158489.8
9340052.4
14806358
24399965
41890449
75703025
1.4696098e+08
3.1773541e+08
8.178337e+08
2.8659315e+09
1.9004835e+10
2670.2936
5722.2604
15764.175
39615.682
76782.939
112860.92
145111.87
167105.24
172517.84
172263.04
212025.31
368615.37
660560.69
1055128.6
1503665.7
1957398.9
2469371
3172959.4
4288238.9
6159001.4
9341922.6
14810189
24406806
41902284
75723821
1.4699921e+08
3.1781088e+08
8.1799803e+08
2.8663184e+09
1.9010648e+10
2661.596
5690.8984
15675.369
39417.126
76552.113
112648.16
144937.81
166981.96
172438.34
172190.18
211967.09
368647.79
660533.23
1055143.5
1503314.3
1956562.4
2468280.3
3171996
4287816.3
6159512.5
9343789.6
14814012
24413635
41914102
75744592
1.470374e+08
3.1788633e+08
8.1816258e+08
2.8667077e+09
1.9016453e+10
2653.0377
5659.7693
15586.921
39219.175
76320.949
112434.91
144763.37
166858.74
172359.17
172116.96
211907.13
368678.1
660505.85
1055157.6
1502961.2
1955725.3
2467191
3171035.7
4287397.5
6160027.5
9345659.9
14817839
24420465
41925922
75765367
1.4707561e+08
3.1796187e+08
8.1832755e+08
2.8670998e+09
1.9022253e+10
2644.6213
5628.8814
15498.844
39021.846
76089.455
112221.14
144588.53
166735.57
172280.32
172043.3
211845.36
368706.56
660478.54
1055170.7
1502606
1954886.9
2466101.7
3170076.3
4286979.7
6160542.2
9347527.4
14821659
24427285
41937727
75786121
1.471138e+08
3.1803741e+08
8.1849273e+08
2.8674939e+09
1.9028044e+10
2636.3495
5598.2426
15411.148
38825.15
75857.639
112006.85
144413.27
166612.44
172201.77
171969.13
211781.68
368733.6
660451.44
1055183
1502249.2
1954048.1
2465013.8
3169120.2
4286566.3
6161062
9349400.4
14825485
24434112
41949540
75806890
1.4715202e+08
3.1811305e+08
8.1865831e+08
2.8678904e+09
1.9033833e+10
2628.2248
5567.8606
15323.845
38629.105
75625.509
111792.04
144237.58
166489.31
172123.49
171894.4
211715.96
368759.74
660424.5
1055194.3
1501890.6
1953208.3
2463926.4
3168165.3
4286154.2
6161581.6
9351270.6
14829305
24440929
41961338
75827640
1.4719023e+08
3.1818871e+08
8.1882414e+08
2.868289e+09
1.9039613e+10
2620.2493
5537.743
15236.945
38433.725
75393.075
111576.69
144061.44
166366.15
172045.5
171819
211648.04
368785.67
660397.8
1055204.9
1501530.4
1952368.1
2462840.3
3167213.5
4285745.9
6162105.1
9353144.4
14833128
24447748
41973140
75848399
1.4722846e+08
3.1826446e+08
8.1899039e+08
2.8686903e+09
1.9045388e+10
2612.4252
5507.8972
15150.46
38239.022
75160.345
111360.8
143884.82
166242.96
171967.76
171742.85
211577.66
368812.31
660371.25
1055214.4
1501168.4
1951526.7
2461754.6
3166263.2
4285339.1
6162629
9355016.1
14836946
24454559
41984929
75869141
1.4726667e+08
3.1834023e+08
8.1915684e+08
2.8690933e+09
1.9051154e+10
2604.7544
5478.3303
15064.399
38045.01
74927.328
111144.38
143707.71