/*--------------------------------*- C++ -*----------------------------------*\
| =========                 |                                                 |
| \\      /  F ield         | OpenFOAM: The Open Source CFD Toolbox           |
|  \\    /   O peration     | Version:  v2012                                 |
|   \\  /    A nd           | Website:  www.openfoam.com                      |
|    \\/     M anipulation  |                                                 |
\*---------------------------------------------------------------------------*/
FoamFile
{
    version     2.0;
    format      ascii;
    class       surfaceScalarField;
    location    "650";
    object      phi;
}
// * * * * * * * * * * * * * * * * * * * * * * * * * * * * * * * * * * * * * //

dimensions      [1 0 -1 0 0 0 0];
oriented        oriented;


internalField   nonuniform List<scalar> 
47170
(
-1.2309154e-08
-4.3324914e-05
-1.9833086e-08
-3.573681e-05
-1.9425484e-08
-2.8135356e-05
-1.2222404e-08
-2.0316207e-05
-4.2848207e-09
-1.3726707e-05
1.9340602e-10
-9.079106e-06
2.2870511e-09
-6.0517751e-06
2.895232e-09
-4.115276e-06
2.8580897e-09
-2.8623678e-06
2.4872183e-09
-2.0382049e-06
1.9379794e-09
-1.4489375e-06
1.446628e-09
-9.9831464e-07
1.1233535e-09
-6.7781843e-07
8.8253879e-10
-4.6305615e-07
6.8285946e-10
-3.1537097e-07
5.1884596e-10
-2.1296685e-07
3.8705662e-10
-1.4316073e-07
2.826575e-10
-9.5860873e-08
2.0253631e-10
-6.3915643e-08
1.4184726e-10
-4.2448352e-08
9.707123e-11
-2.8073542e-08
6.4397726e-11
-1.8455694e-08
4.1342122e-11
-1.2023373e-08
2.5368177e-11
-7.7283409e-09
1.4753887e-11
-4.8704183e-09
7.9190698e-12
-2.9798462e-09
3.7627936e-12
-1.7401377e-09
1.4278673e-12
-9.3744662e-10
3.1083704e-13
-4.2706046e-10
-1.1104223e-10
-1.3675036e-08
-4.3311239e-05
-2.2844607e-08
-3.5727641e-05
-2.2180308e-08
-2.8136021e-05
-1.1949024e-08
-2.0326438e-05
-2.056223e-09
-1.37366e-05
3.0558147e-09
-9.084218e-06
5.1034119e-09
-6.0538226e-06
5.3315915e-09
-4.1155042e-06
4.665501e-09
-2.8617015e-06
3.7364526e-09
-2.0372759e-06
2.8578182e-09
-1.4480587e-06
2.1453875e-09
-9.976023e-07
1.6121935e-09
-6.7728503e-07
1.1895699e-09
-4.6263363e-07
8.5476949e-10
-3.1503599e-07
6.0513358e-10
-2.1271733e-07
4.2408738e-10
-1.4297954e-07
2.9356284e-10
-9.5730442e-08
2.0058642e-10
-6.3822572e-08
1.3480466e-10
-4.2382638e-08
8.8925122e-11
-2.8027609e-08
5.7184182e-11
-1.8423993e-08
3.5695309e-11
-1.2001857e-08
2.138328e-11
-7.7140433e-09
1.2146245e-11
-4.8611672e-09
6.361197e-12
-2.9740669e-09
2.9434312e-12
-1.7367058e-09
1.0771141e-12
-9.3557331e-10
2.2274864e-13
-4.2620113e-10
-1.1081949e-10
-1.4208215e-08
-4.3297031e-05
-2.3673183e-08
-3.5718176e-05
-2.2650071e-08
-2.8137044e-05
-1.1719007e-08
-2.0337369e-05
-1.45474e-09
-1.3746864e-05
3.9579192e-09
-9.0896307e-06
5.9673514e-09
-6.055832e-06
6.0013969e-09
-4.1155383e-06
5.1309079e-09
-2.8608309e-06
4.034816e-09
-2.0361799e-06
3.0169725e-09
-1.4470408e-06
2.1813007e-09
-9.9676673e-07
1.5545591e-09
-6.7665819e-07
1.0718445e-09
-4.6215103e-07
7.0504786e-10
-3.1466911e-07
4.4613744e-10
-2.1245852e-07
2.7251598e-10
-1.4280584e-07
1.6024757e-10
-9.5618252e-08
9.0899392e-11
-6.3753158e-08
4.9812056e-11
-4.2341597e-08
2.6496059e-11
-2.8004243e-08
1.3599924e-11
-1.8411118e-08
6.7549923e-12
-1.1994978e-08
3.1887099e-12
-7.7104843e-09
1.4302996e-12
-4.8593919e-09
5.8889852e-13
-2.973221e-09
2.1270697e-13
-1.7363275e-09
6.1167538e-14
-9.354197e-10
1.0104257e-14
-4.2614859e-10
-1.1080938e-10
-1.4584137e-08
-4.3282446e-05
-2.423053e-08
-3.5708529e-05
-2.2969802e-08
-2.8138304e-05
-1.1579175e-08
-2.034876e-05
-1.044247e-09
-1.3757399e-05
4.5970717e-09
-9.095272e-06
6.5682591e-09
-6.0578031e-06
6.4902521e-09
-4.1154604e-06
5.5174091e-09
-2.859858e-06
4.3354954e-09
-2.034998e-06
3.2411684e-09
-1.4459464e-06
2.34178e-09
-9.9586744e-07
1.6710797e-09
-6.7598742e-07
1.1617992e-09
-4.6164185e-07
7.7977743e-10
-3.1428702e-07
5.1240143e-10
-2.1219123e-07
3.3231245e-10
-1.4262569e-07
2.1308089e-10
-9.5499081e-08
1.3551975e-10
-6.3675543e-08
8.5508586e-11
-4.2291615e-08
5.3469925e-11
-2.7972164e-08
3.2909583e-11
-1.8390563e-08
1.9821477e-11
-1.1981863e-08
1.1538771e-11
-7.7021938e-09
6.4027994e-12
-4.8542363e-09
3.2857955e-12
-2.9700995e-09
1.4993108e-12
-1.7345187e-09
5.4453389e-13
-9.344502e-10
1.1446679e-13
-4.2570807e-10
-1.1069491e-10
-1.4796296e-08
-4.326765e-05
-2.4497281e-08
-3.5698828e-05
-2.3090583e-08
-2.8139711e-05
-1.148581e-08
-2.0360365e-05
-8.2186559e-10
-1.3768063e-05
4.9690331e-09
-9.101063e-06
6.9163855e-09
-6.0597504e-06
6.7784509e-09
-4.1153225e-06
5.7516853e-09
-2.8588312e-06
4.5248588e-09
-2.0337713e-06
3.3879868e-09
-1.4448094e-06
2.4485344e-09
-9.9492806e-07
1.7467696e-09
-6.7528559e-07
1.2160643e-09
-4.6111122e-07
8.1867767e-10
-3.1388957e-07
5.3970294e-10
-2.1191232e-07
3.507551e-10
-1.4243668e-07
2.2493946e-10
-9.5373318e-08
1.4275141e-10
-6.3593298e-08
8.9705857e-11
-4.223861e-08
5.5826783e-11
-2.7938243e-08
3.4184799e-11
-1.8368949e-08
2.0515217e-11
-1.1968168e-08
1.1903636e-11
-7.693599e-09
6.6019912e-12
-4.8489275e-09
3.4027671e-12
-2.9669047e-09
1.5535551e-12
-1.7326775e-09
5.6418943e-13
-9.3346826e-10
1.1484682e-13
-4.25264e-10
-1.1058007e-10
-1.4917953e-08
-4.3252732e-05
-2.4635275e-08
-3.5689111e-05
-2.3152547e-08
-2.8141194e-05
-1.1436489e-08
-2.0372081e-05
-6.9359073e-10
-1.3778806e-05
5.2008758e-09
-9.1069575e-06
7.1377592e-09
-6.0616873e-06
6.966992e-09
-4.1151518e-06
5.9099497e-09
-2.8577741e-06
4.6574643e-09
-2.0325188e-06
3.4939823e-09
-1.4436459e-06
2.5277443e-09
-9.9396189e-07
1.8044979e-09
-6.7456229e-07
1.2585092e-09
-4.6056529e-07
8.4982738e-10
-3.1348082e-07
5.623337e-10
-2.1162488e-07
3.6697451e-10
-1.4224126e-07
2.3641678e-10
-9.52428e-08
1.5072848e-10
-6.3507559e-08
9.5161863e-11
-4.2183067e-08
5.9453005e-11
-2.79025e-08
3.653925e-11
-1.8346046e-08
2.1969747e-11
-1.1953579e-08
1.2768861e-11
-7.6843988e-09
7.0757159e-12
-4.8432212e-09
3.6284086e-12
-2.9634586e-09
1.6536928e-12
-1.7306858e-09
5.9968534e-13
-9.3240362e-10
1.2492256e-13
-4.2478169e-10
-1.1045514e-10
-1.4984522e-08
-4.3237748e-05
-2.470396e-08
-3.5679392e-05
-2.3189793e-08
-2.8142708e-05
-1.1419529e-08
-2.0383851e-05
-6.2603298e-10
-1.37896e-05
5.3439805e-09
-9.1129275e-06
7.2789364e-09
-6.0636222e-06
7.0909225e-09
-4.1149638e-06
6.015868e-09
-2.856699e-06
4.7475657e-09
-2.0312506e-06
3.5665977e-09
-1.4424649e-06
2.5821419e-09
-9.9297748e-07
1.8440889e-09
-6.7382419e-07
1.2874993e-09
-4.6000875e-07
8.709764e-10
-3.1306425e-07
5.7760964e-10
-2.1133155e-07
3.7784807e-10
-1.4204144e-07
2.4406218e-10
-9.510904e-08
1.5600944e-10
-6.3419461e-08
9.8762301e-11
-4.2125834e-08
6.1858926e-11
-2.7865563e-08
3.8116814e-11
-1.8322309e-08
2.2978144e-11
-1.1938417e-08
1.3391573e-11
-7.6748137e-09
7.44376e-12
-4.8372626e-09
3.8420962e-12
-2.9598529e-09
1.7545239e-12
-1.7285985e-09
6.3761552e-13
-9.3128654e-10
1.3125098e-13
-4.2427521e-10
-1.1032389e-10
-1.5020527e-08
-4.3222727e-05
-2.4740295e-08
-3.5669672e-05
-2.3223291e-08
-2.8144225e-05
-1.1429031e-08
-2.0395645e-05
-5.9788813e-10
-1.3800431e-05
5.4317771e-09
-9.1189572e-06
7.3703833e-09
-6.0655608e-06
7.1734987e-09
-4.114767e-06
6.0875425e-09
-2.855613e-06
4.8089816e-09
-2.0299721e-06
3.6161506e-09
-1.441272e-06
2.6190621e-09
-9.9198044e-07
1.8709102e-09
-6.7307599e-07
1.3070185e-09
-4.594449e-07
8.8512765e-10
-3.1264231e-07
5.8775644e-10
-2.1103422e-07
3.8500914e-10
-1.4183865e-07
2.4904427e-10
-9.4973093e-08
1.5940193e-10
-6.3329777e-08
1.0103719e-10
-4.2067471e-08
6.3336685e-11
-2.7827833e-08
3.9059952e-11
-1.8298024e-08
2.3543921e-11
-1.1922883e-08
1.3721756e-11
-7.6649796e-09
7.6160477e-12
-4.8311425e-09
3.9147997e-12
-2.9561462e-09
1.7852184e-12
-1.726451e-09
6.4787389e-13
-9.3013663e-10
1.3520455e-13
-4.2375362e-10
-1.1018869e-10
-1.5040381e-08
-4.3207687e-05
-2.4762928e-08
-3.5659949e-05
-2.3261534e-08
-2.8145726e-05
-1.1459081e-08
-2.0407448e-05
-5.9726141e-10
-1.3811293e-05
5.4826686e-09
-9.1250371e-06
7.4293316e-09
-6.0675075e-06
7.2286566e-09
-4.1145663e-06
6.1364285e-09
-2.8545208e-06
4.8510991e-09
-2.0286868e-06
3.6501347e-09
-1.440071e-06
2.6442722e-09
-9.9097462e-07
1.8891611e-09
-6.7232083e-07
1.3203178e-09
-4.588761e-07
8.9487193e-10
-3.1221681e-07
5.9484804e-10
-2.1073423e-07
3.9013003e-10
-1.4163388e-07
2.5268987e-10
-9.4835689e-08
1.6198663e-10
-6.3239031e-08
1.0282526e-10
-4.2008343e-08
6.4580002e-11
-2.7789557e-08
3.9886264e-11
-1.8273357e-08
2.4105864e-11
-1.1907085e-08
1.4077675e-11
-7.6549686e-09
7.8448006e-12
-4.8249066e-09
4.0593238e-12
-2.9523664e-09
1.8589329e-12
-1.7242598e-09
6.7667958e-13
-9.2896276e-10
1.3809428e-13
-4.2322099e-10
-1.1005059e-10
-1.505266e-08
-4.3192634e-05
-2.4782009e-08
-3.565022e-05
-2.3307571e-08
-2.8147201e-05
-1.1505681e-08
-2.041925e-05
-6.1600378e-10
-1.3822182e-05
5.5082762e-09
-9.1311614e-06
7.4655062e-09
-6.0694647e-06
7.2656475e-09
-4.1143665e-06
6.1703578e-09
-2.8534255e-06
4.8804458e-09
-2.0273969e-06
3.6736904e-09
-1.4388642e-06
2.661549e-09
-9.8996252e-07
1.9013256e-09
-6.7156057e-07
1.3290704e-09
-4.5830388e-07
9.0123645e-10
-3.1178893e-07
5.9943899e-10
-2.1043247e-07
3.9338682e-10
-1.4142778e-07
2.5496556e-10
-9.4697295e-08
1.6353764e-10
-6.3147561e-08
1.0386549e-10
-4.1948689e-08
6.524082e-11
-2.7750905e-08
4.0300555e-11
-1.8248425e-08
2.433649e-11
-1.1891105e-08
1.4201561e-11
-7.6448354e-09
7.89587e-12
-4.8185909e-09
4.0639366e-12
-2.9485364e-09
1.8563401e-12
-1.7220386e-09
6.7438703e-13
-9.2777248e-10
1.4008216e-13
-4.2268077e-10
-1.0991051e-10
-1.5062334e-08
-4.3177572e-05
-2.480269e-08
-3.564048e-05
-2.3361673e-08
-2.8148642e-05
-1.156519e-08
-2.0431046e-05
-6.4894791e-10
-1.3833098e-05
5.5165762e-09
-9.137327e-06
7.4865866e-09
-6.0714347e-06
7.2897698e-09
-4.1141697e-06
6.1937164e-09
-2.8523294e-06
4.9008507e-09
-2.0261041e-06
3.689965e-09
-1.4376533e-06
2.6733029e-09
-9.8894589e-07
1.909402e-09
-6.7079663e-07
1.334827e-09
-4.5772934e-07
9.0543601e-10
-3.1135949e-07
6.0252579e-10
-2.1012959e-07
3.9562674e-10
-1.4122083e-07
2.56581e-10
-9.455827e-08
1.6468212e-10
-6.3055624e-08
1.0466861e-10
-4.1888687e-08
6.5790405e-11
-2.7711999e-08
4.0671739e-11
-1.8223313e-08
2.4584322e-11
-1.1874999e-08
1.4362781e-11
-7.6346164e-09
7.9984535e-12
-4.8122184e-09
4.1349719e-12
-2.9446704e-09
1.8909045e-12
-1.7197959e-09
6.8786403e-13
-9.2657034e-10
1.4152199e-13
-4.2213507e-10
-1.0976899e-10
-1.5071983e-08
-4.31625e-05
-2.4827424e-08
-3.5630724e-05
-2.3423089e-08
-2.8150046e-05
-1.1634672e-08
-2.0442835e-05
-6.9232252e-10
-1.3844041e-05
5.5124966e-09
-9.1435318e-06
7.497439e-09
-6.0734196e-06
7.3048108e-09
-4.1139771e-06
6.209153e-09
-2.8512337e-06
4.9146755e-09
-2.0248096e-06
3.7009028e-09
-1.4364395e-06
2.680907e-09
-9.8792593e-07
1.9144259e-09
-6.7003011e-07
1.3382997e-09
-4.5715325e-07
9.0792451e-10
-3.1092908e-07
6.0434558e-10
-2.0982603e-07
3.9694257e-10
-1.4101339e-07
2.5752552e-10
-9.4418864e-08
1.6533535e-10
-6.2963396e-08
1.051147e-10
-4.1828467e-08
6.60721e-11
-2.7672929e-08
4.0849029e-11
-1.8198082e-08
2.467657e-11
-1.185881e-08
1.4410205e-11
-7.6243402e-09
8.0120676e-12
-4.8058079e-09
4.1261861e-12
-2.9407802e-09
1.884083e-12
-1.7175386e-09
6.8444279e-13
-9.2536012e-10
1.4250658e-13
-4.2158563e-10
-1.0962648e-10
-1.5082678e-08
-4.3147417e-05
-2.4856649e-08
-3.562095e-05
-2.3491416e-08
-2.8151412e-05
-1.1712688e-08
-2.0454613e-05
-7.4369731e-10
-1.385501e-05
5.4992869e-09
-9.1497748e-06
7.5003573e-09
-6.0754207e-06
7.3140674e-09
-4.1137909e-06
6.2193334e-09
-2.850139e-06
4.9240703e-09
-2.0235144e-06
3.7082198e-09
-1.4352236e-06
2.6856475e-09
-9.8690339e-07
1.9175245e-09
-6.6926196e-07
1.3404021e-09
-4.5657616e-07
9.0948703e-10
-3.1049812e-07
6.055586e-10
-2.0952213e-07
3.9790114e-10
-1.4080569e-07
2.582728e-10
-9.4279266e-08
1.6592209e-10
-6.2871012e-08
1.0555095e-10
-4.1768123e-08
6.6411142e-11
-2.7633766e-08
4.1087729e-11
-1.817278e-08
2.4861821e-11
-1.184257e-08
1.4536464e-11
-7.6140286e-09
8.1049625e-12
-4.7993737e-09
4.1951542e-12
-2.9368748e-09
1.9214488e-12
-1.7152721e-09
6.9956485e-13
-9.2414481e-10
1.4311877e-13
-4.2103384e-10
-1.0948336e-10
-1.5094795e-08
-4.3132323e-05
-2.4889888e-08
-3.5611155e-05
-2.356616e-08
-2.8152735e-05
-1.1796958e-08
-2.0466383e-05
-8.0145e-10
-1.3866005e-05
5.4790957e-09
-9.1560554e-06
7.4974303e-09
-6.077439e-06
7.3187054e-09
-4.1136121e-06
6.2256249e-09
-2.8490459e-06
4.9301725e-09
-2.022219e-06
3.7128388e-09
-1.4340063e-06
2.6882713e-09
-9.8587885e-07
1.9189679e-09
-6.6849263e-07
1.3412269e-09
-4.5599844e-07
9.1006644e-10
-3.1006693e-07
6.0599575e-10
-2.0921809e-07
3.9822942e-10
-1.4059788e-07
2.5852243e-10
-9.4139581e-08
1.6609243e-10
-6.277855e-08
1.0566647e-10
-4.1707711e-08
6.6468873e-11
-2.7594546e-08
4.1117844e-11
-1.8147435e-08
2.4857783e-11
-1.1826298e-08
1.4522952e-11
-7.6036941e-09
8.0814751e-12
-4.7929239e-09
4.1648917e-12
-2.9329592e-09
1.903513e-12
-1.7129994e-09
6.918654e-13
-9.2292605e-10
1.4354084e-13
-4.2048047e-10
-1.0933982e-10
-1.5108598e-08
-4.3117214e-05
-2.4926688e-08
-3.5601337e-05
-2.3646116e-08
-2.8154016e-05
-1.1886748e-08
-2.0478142e-05
-8.6375139e-10
-1.3877028e-05
5.4539459e-09
-9.1623731e-06
7.4906522e-09
-6.0794757e-06
7.3195212e-09
-4.113441e-06
6.2289238e-09
-2.8479553e-06
4.9338507e-09
-2.0209239e-06
3.7155615e-09
-1.432788e-06
2.689558e-09
-9.8485288e-07
1.9192734e-09
-6.6772231e-07
1.3412339e-09
-4.5542043e-07
9.1007019e-10
-3.0963573e-07
6.0606733e-10
-2.0891411e-07
3.9833964e-10
-1.4039012e-07
2.5865551e-10
-9.3999915e-08
1.6622362e-10
-6.268609e-08
1.0578806e-10
-4.1647286e-08
6.6570272e-11
-2.7555308e-08
4.1199673e-11
-1.812207e-08
2.4923913e-11
-1.1810009e-08
1.4573717e-11
-7.5933466e-09
8.1203232e-12
-4.7864649e-09
4.1993978e-12
-2.9290372e-09
1.9213042e-12
-1.7107227e-09
6.9909189e-13
-9.2170504e-10
1.43821e-13
-4.1992605e-10
-1.09196e-10
-1.5124106e-08
-4.310209e-05
-2.4966926e-08
-3.5591495e-05
-2.3729981e-08
-2.8155253e-05
-1.1980704e-08
-2.0489891e-05
-9.3002708e-10
-1.3888079e-05
5.4247594e-09
-9.1687279e-06
7.4805539e-09
-6.0815315e-06
7.3179309e-09
-4.1132784e-06
6.2303013e-09
-2.8468676e-06
4.9359139e-09
-2.0196296e-06
3.7169486e-09
-1.431569e-06
2.6898898e-09
-9.8382585e-07
1.9188356e-09
-6.6695123e-07
1.3406582e-09
-4.5484228e-07
9.0959881e-10
-3.0920464e-07
6.0576172e-10
-2.086103e-07
3.9815061e-10
-1.4018248e-07
2.5855117e-10
-9.3860326e-08
1.6616395e-10
-6.2593677e-08
1.057573e-10
-4.158688e-08
6.6541331e-11
-2.7516073e-08
4.1180023e-11
-1.8096702e-08
2.4897103e-11
-1.1793714e-08
1.4552199e-11
-7.582994e-09
8.0975521e-12
-4.7800017e-09
4.1759822e-12
-2.9251122e-09
1.9080715e-12
-1.708444e-09
6.9353612e-13
-9.2048286e-10
1.4397772e-13
-4.1937107e-10
-1.0905202e-10
-1.5141154e-08
-4.3086949e-05
-2.5010425e-08
-3.5581625e-05
-2.3816672e-08
-2.8156447e-05
-1.2077911e-08
-2.050163e-05
-9.9928581e-10
-1.3899158e-05
5.3922493e-09
-9.1751195e-06
7.4674883e-09
-6.0836067e-06
7.3144647e-09
-4.1131254e-06
6.2304031e-09
-2.8457835e-06
4.9368943e-09
-2.0183361e-06
3.7174561e-09
-1.4303495e-06
2.6896065e-09
-9.8279802e-07
1.9180678e-09
-6.6617967e-07
1.3398955e-09
-4.5426414e-07
9.0906624e-10
-3.0877379e-07
6.0547095e-10
-2.0830674e-07
3.9804771e-10
-1.3997504e-07
2.5855303e-10
-9.3720868e-08
1.6624197e-10
-6.2501346e-08
1.0584878e-10
-4.1526519e-08
6.6649938e-11
-2.747686e-08
4.1266729e-11
-1.8071345e-08
2.4984393e-11
-1.1777424e-08
1.4616699e-11
-7.5726424e-09
8.1532424e-12
-4.7735386e-09
4.2221331e-12
-2.921187e-09
1.9345986e-12
-1.706165e-09
7.0454317e-13
-9.1926048e-10
1.4400345e-13
-4.1881597e-10
-1.0890802e-10
-1.515945e-08
-4.3071789e-05
-2.5056409e-08
-3.5571728e-05
-2.3905909e-08
-2.8157597e-05
-1.2178083e-08
-2.0513358e-05
-1.0708588e-09
-1.3910265e-05
5.3574899e-09
-9.1815478e-06
7.4528085e-09
-6.085702e-06
7.3089558e-09
-4.1129816e-06
6.2292823e-09
-2.8447039e-06
4.936835e-09
-2.0170437e-06
3.7170862e-09
-1.4291298e-06
2.688522e-09
-9.8176949e-07
1.9168054e-09
-6.6540794e-07
1.3387148e-09
-4.5368608e-07
9.0818071e-10
-3.0834323e-07
6.0485456e-10
-2.0800344e-07
3.9763431e-10
-1.3976779e-07
2.5828831e-10
-9.3581548e-08
1.660608e-10
-6.2409097e-08
1.057281e-10
-4.1466205e-08
6.6551957e-11
-2.743767e-08
4.1196407e-11
-1.8045999e-08
2.4918679e-11
-1.1761138e-08
1.4566285e-11
-7.5622932e-09
8.1094671e-12
-4.7670764e-09
4.1823071e-12
-2.9172622e-09
1.912241e-12
-1.7038861e-09
6.9528969e-13
-9.1803811e-10
1.4401468e-13
-4.1826085e-10
-1.0876401e-10
-1.5178741e-08
-4.3056611e-05
-2.5103909e-08
-3.5561803e-05
-2.3997634e-08
-2.8158703e-05
-1.2280222e-08
-2.0525075e-05
-1.1446507e-09
-1.39214e-05
5.3207708e-09
-9.1880132e-06
7.4367968e-09
-6.0878181e-06
7.3024023e-09
-4.1128472e-06
6.2270764e-09
-2.8436285e-06
4.935961e-09
-2.0157526e-06
3.7161197e-09
-1.4279099e-06
2.6869388e-09
-9.8074033e-07
1.9151369e-09
-6.6463612e-07
1.3372713e-09
-4.5310824e-07
9.0713356e-10
-3.0791307e-07
6.0416869e-10
-2.077005e-07
3.9720987e-10
-1.3956081e-07
2.5805358e-10
-9.3442413e-08
1.6593787e-10
-6.2316963e-08
1.0567684e-10
-4.1405958e-08
6.6538139e-11
-2.7398518e-08
4.1202908e-11
-1.8020672e-08
2.493701e-11
-1.1744864e-08
1.4588208e-11
-7.5519492e-09
8.1314192e-12
-4.7606167e-09
4.2077999e-12
-2.9133386e-09
1.9259095e-12
-1.7016077e-09
7.01015e-13
-9.1681597e-10
1.4400192e-13
-4.177058e-10
-1.0862e-10
-1.5198876e-08
-4.3041412e-05
-2.5152504e-08
-3.555185e-05
-2.4091371e-08
-2.8159764e-05
-1.2384565e-08
-2.0536782e-05
-1.2198222e-09
-1.3932565e-05
5.2824587e-09
-9.1945155e-06
7.4194318e-09
-6.089955e-06
7.2957101e-09
-4.1127235e-06
6.2241698e-09
-2.842557e-06
4.9345239e-09
-2.0144629e-06
3.714696e-09
-1.4266901e-06
2.6849965e-09
-9.7971065e-07
1.9130019e-09
-6.638641e-07
1.3354363e-09
-4.525307e-07
9.0573711e-10
-3.0748336e-07
6.0319198e-10
-2.0739798e-07
3.9654025e-10
-1.3935414e-07
2.5761187e-10
-9.3303495e-08
1.6564259e-10
-6.2224974e-08
1.0548405e-10
-4.1345801e-08
6.6401142e-11
-2.735942e-08
4.1111374e-11
-1.7995378e-08
2.4864454e-11
-1.1728607e-08
1.4537304e-11
-7.5416161e-09
8.0910289e-12
-4.754163e-09
4.1731214e-12
-2.9094184e-09
1.9071396e-12
-1.6993312e-09
6.9332175e-13
-9.1559476e-10
1.4390624e-13
-4.1715113e-10
-1.084761e-10
-1.5219774e-08
-4.3026192e-05
-2.5202317e-08
-3.5541867e-05
-2.4186518e-08
-2.816078e-05
-1.249009e-08
-2.0548478e-05
-1.296327e-09
-1.3943759e-05
5.2432247e-09
-9.2010551e-06
7.4014034e-09
-6.0921132e-06
7.2880877e-09
-4.1126102e-06
6.2205626e-09
-2.8414894e-06
4.932545e-09
-2.0131749e-06
3.7128535e-09
-1.4254704e-06
2.6828198e-09
-9.7868064e-07
1.9107417e-09
-6.6309201e-07
1.3335541e-09
-4.5195354e-07
9.0437103e-10
-3.0705415e-07
6.0229803e-10
-2.0709594e-07
3.9600109e-10
-1.3914782e-07
2.5730678e-10
-9.3164832e-08
1.6550505e-10
-6.213316e-08
1.0543117e-10
-4.1285755e-08
6.6411641e-11
-2.7320392e-08
4.1137542e-11
-1.7970125e-08
2.491178e-11
-1.1712377e-08
1.4579966e-11
-7.5312985e-09
8.1334596e-12
-4.7477186e-09
4.2132342e-12
-2.9055036e-09
1.9306846e-12
-1.6970578e-09
7.0321752e-13
-9.1437514e-10
1.4370979e-13
-4.165972e-10
-1.0833239e-10
-1.5241308e-08
-4.3010951e-05
-2.5253545e-08
-3.5531855e-05
-2.4282312e-08
-2.8161751e-05
-1.2596777e-08
-2.0560164e-05
-1.3737882e-09
-1.3954982e-05
5.2029261e-09
-9.2076318e-06
7.3828957e-09
-6.0942932e-06
7.2796142e-09
-4.1125069e-06
6.2163573e-09
-2.8404262e-06
4.9300437e-09
-2.0118886e-06
3.7105289e-09
-1.4242508e-06
2.6802807e-09
-9.7765041e-07
1.9082621e-09
-6.6231997e-07
1.3314519e-09
-4.5137675e-07
9.0279605e-10
-3.0662548e-07
6.0118219e-10
-2.0679435e-07
3.9523214e-10
-1.3894186e-07
2.5678861e-10
-9.3026408e-08
1.6515197e-10
-6.2041507e-08
1.0519422e-10
-4.122581e-08
6.6238729e-11
-2.7281425e-08
4.1018128e-11
-1.7944911e-08
2.4816346e-11
-1.169617e-08
1.4510867e-11
-7.5209948e-09
8.0794051e-12
-4.7412825e-09
4.1675352e-12
-2.9015937e-09
1.9055238e-12
-1.6947871e-09
6.9288157e-13
-9.13157e-10
1.4353244e-13
-4.1604395e-10
-1.0818886e-10
-1.526331e-08
-4.2995687e-05
-2.5305877e-08
-3.5521812e-05
-2.4378795e-08
-2.8162679e-05
-1.2704693e-08
-2.0571838e-05
-1.452173e-09
-1.3966234e-05
5.1616459e-09
-9.2142456e-06
7.3632109e-09
-6.0964947e-06
7.271092e-09
-4.1124148e-06
6.2120708e-09
-2.8393671e-06
4.9274181e-09
-2.010604e-06
3.7080792e-09
-1.4230315e-06
2.6776546e-09
-9.7662001e-07
1.9058852e-09
-6.6154819e-07
1.3294795e-09
-4.5080037e-07
9.0136585e-10
-3.0619735e-07
6.0021389e-10
-2.0649321e-07
3.9461066e-10
-1.3873623e-07
2.564139e-10
-9.2888227e-08
1.6493715e-10
-6.1950015e-08
1.0508101e-10
-4.1165964e-08
6.618468e-11
-2.7242518e-08
4.0998289e-11
-1.7919731e-08
2.4818232e-11
-1.1679982e-08
1.4522716e-11
-7.510703e-09
8.0957049e-12
-4.7348534e-09
4.1896104e-12
-2.8976877e-09
1.9177202e-12
-1.6925186e-09
6.9803764e-13
-9.1193995e-10
1.4341046e-13
-4.1549119e-10
-1.0804545e-10
-1.5285616e-08
-4.2980402e-05
-2.5358588e-08
-3.5511739e-05
-2.4476225e-08
-2.8163561e-05
-1.2813398e-08
-2.0583501e-05
-1.5316838e-09
-1.3977516e-05
5.1194644e-09
-9.2208968e-06
7.3430302e-09
-6.0987183e-06
7.2618859e-09
-4.1123337e-06
6.2076372e-09
-2.8383129e-06
4.9247038e-09
-2.0093211e-06
3.7056165e-09
-1.4218124e-06
2.6750148e-09
-9.7558943e-07
1.9033874e-09
-6.6077655e-07
1.3273869e-09
-4.5022438e-07
8.9979297e-10
-3.0576974e-07
5.9911007e-10
-2.0619255e-07
3.9385396e-10
-1.3853096e-07
2.5591608e-10
-9.2750296e-08
1.6460542e-10
-6.1858687e-08
1.0486487e-10
-4.1106223e-08
6.6033263e-11
-2.7203674e-08
4.0897816e-11
-1.789459e-08
2.4741692e-11
-1.1663819e-08
1.4469821e-11
-7.5004252e-09
8.055481e-12
-4.7284327e-09
4.1564729e-12
-2.8937864e-09
1.8998395e-12
-1.6902527e-09
6.9073942e-13
-9.1072428e-10
1.4325864e-13
-4.1493905e-10
-1.0790219e-10
-1.5308147e-08
-4.2965094e-05
-2.5411242e-08
-3.5501636e-05
-2.457472e-08
-2.8164397e-05
-1.2923414e-08
-2.0595152e-05
-1.6117224e-09
-1.3988828e-05
5.0768109e-09
-9.2275853e-06
7.3226722e-09
-6.1009641e-06
7.2519184e-09
-4.112263e-06
6.2031446e-09
-2.8372641e-06
4.9220201e-09
-2.00804e-06
3.7032804e-09
-1.4205936e-06
2.6725055e-09
-9.7455867e-07
1.9008984e-09
-6.6000493e-07
1.3253503e-09
-4.4964886e-07
8.9831908e-10
-3.053427e-07
5.9814289e-10
-2.058924e-07
3.932645e-10
-1.3832607e-07
2.5557868e-10
-9.2612642e-08
1.6444407e-10
-6.1767545e-08
1.0479489e-10
-4.1046603e-08
6.603123e-11
-2.7164905e-08
4.0914805e-11
-1.7869496e-08
2.4782216e-11
-1.1647684e-08
1.4507509e-11
-7.4901654e-09
8.0944624e-12
-4.722023e-09
4.1938974e-12
-2.8898918e-09
1.9220996e-12
-1.6879907e-09
7.0014224e-13
-9.0951064e-10
1.4301837e-13
-4.1438782e-10
-1.0775917e-10
-1.5330809e-08
-4.2949763e-05
-2.546417e-08
-3.5491503e-05
-2.4673868e-08
-2.8165188e-05
-1.3033917e-08
-2.0606792e-05
-1.6926996e-09
-1.4000169e-05
5.033508e-09
-9.2343116e-06
7.3017115e-09
-6.1032323e-06
7.2423463e-09
-4.1122036e-06
6.1984752e-09
-2.8362202e-06
4.9191332e-09
-2.0067607e-06
3.7007131e-09
-1.4193752e-06
2.6697114e-09
-9.7352769e-07
1.8981481e-09
-6.5923335e-07
1.3230458e-09
-4.4907378e-07
8.9658695e-10
-3.0491622e-07
5.9691222e-10
-2.0559275e-07
3.9240636e-10
-1.3812155e-07
2.5499295e-10
-9.2475249e-08
1.640405e-10
-6.167658e-08
1.0452164e-10
-4.0987098e-08
6.5834175e-11
-2.712621e-08
4.0779226e-11
-1.7844449e-08
2.4677311e-11
-1.1631578e-08
1.4432463e-11
-7.4799233e-09
8.0373495e-12
-4.7156243e-09
4.1468784e-12
-2.8860038e-09
1.8963478e-12
-1.6857323e-09
6.8962479e-13
-9.0829902e-10
1.4278293e-13
-4.1383751e-10
-1.0761639e-10
-1.5353574e-08
-4.2934409e-05
-2.5517826e-08
-3.5481339e-05
-2.4772959e-08
-2.8165933e-05
-1.3145125e-08
-2.061842e-05
-1.7738623e-09
-1.401154e-05
4.9899078e-09
-9.2410753e-06
7.2806177e-09
-6.105523e-06
7.2327046e-09
-4.1121557e-06
6.1932601e-09
-2.8351808e-06
4.9158086e-09
-2.0054832e-06
3.6977687e-09
-1.4181571e-06
2.6666657e-09
-9.724966e-07
1.895357e-09
-6.5846203e-07
1.3207585e-09
-4.484992e-07
8.9492808e-10
-3.0449038e-07
5.9577567e-10
-2.0529361e-07
3.9166513e-10
-1.3791743e-07
2.5453009e-10
-9.233813e-08
1.6376338e-10
-6.1585802e-08
1.0436439e-10
-4.092771e-08
6.5751267e-11
-2.7087588e-08
4.0740712e-11
-1.7819446e-08
2.4667607e-11
-1.1615499e-08
1.4437565e-11
-7.4696978e-09
8.0496441e-12
-4.7092354e-09
4.167062e-12
-2.8821216e-09
1.9076844e-12
-1.6834773e-09
6.9449366e-13
-9.0708909e-10
1.4259437e-13
-4.1328792e-10
-1.0747379e-10
-1.5376467e-08
-4.2919033e-05
-2.5572252e-08
-3.5471143e-05
-2.4872112e-08
-2.8166633e-05
-1.3256802e-08
-2.0630035e-05
-1.8553273e-09
-1.4022942e-05
4.946066e-09
-9.2478767e-06
7.2596651e-09
-6.1078366e-06
7.2225598e-09
-4.1121186e-06
6.1877222e-09
-2.8341459e-06
4.9122255e-09
-2.0042077e-06
3.6945957e-09
-1.4169395e-06
2.6634712e-09
-9.7146549e-07
1.8925433e-09
-6.5769109e-07
1.318437e-09
-4.4792511e-07
8.9319226e-10
-3.0406512e-07
5.9454877e-10
-2.0499498e-07
3.908211e-10
-1.3771368e-07
2.5396463e-10
-9.2201279e-08
1.6338393e-10
-6.1495206e-08
1.0411323e-10
-4.0868439e-08
6.5576022e-11
-2.7049039e-08
4.0623309e-11
-1.7794488e-08
2.4580067e-11
-1.1599449e-08
1.4377035e-11
-7.4594894e-09
8.0045429e-12
-4.7028567e-09
4.1301899e-12
-2.8782454e-09
1.8879602e-12
-1.6812257e-09
6.864807e-13
-9.0588098e-10
1.4239476e-13
-4.1273913e-10
-1.073314e-10
-1.5399431e-08
-4.2903633e-05
-2.5626802e-08
-3.5460915e-05
-2.4971601e-08
-2.8167288e-05
-1.3368948e-08
-2.0641638e-05
-1.9377126e-09
-1.4034373e-05
4.9015527e-09
-9.254716e-06
7.238044e-09
-6.1101731e-06
7.2126424e-09
-4.1120932e-06
6.1823806e-09
-2.8331157e-06
4.9088252e-09
-2.0029342e-06
3.6916445e-09
-1.4157223e-06
2.6605484e-09
-9.7043442e-07
1.8898868e-09
-6.5692042e-07
1.3162821e-09
-4.4735153e-07
8.916291e-10
-3.0364046e-07
5.9351326e-10
-2.0469689e-07
3.9018028e-10
-1.3751034e-07
2.5359181e-10
-9.206472e-08
1.6319764e-10
-6.1404807e-08
1.0402669e-10
-4.0809294e-08
6.5560523e-11
-2.7010571e-08
4.0632728e-11
-1.776958e-08
2.4614163e-11
-1.158343e-08
1.4412104e-11
-7.4493009e-09
8.0413551e-12
-4.6964901e-09
4.1669011e-12
-2.8743765e-09
1.9097904e-12
-1.6789783e-09
6.9572589e-13
-9.0467512e-10
1.4212748e-13
-4.1219136e-10
-1.0718927e-10
-1.5422354e-08
-4.2888211e-05
-2.5680928e-08
-3.5450657e-05
-2.5071959e-08
-2.8167897e-05
-1.3482215e-08
-2.0653228e-05
-2.0203776e-09
-1.4045835e-05
4.8566937e-09
-9.2615931e-06
7.2161483e-09
-6.1125326e-06
7.2025296e-09
-4.1120796e-06
6.1769782e-09
-2.8320901e-06
4.9053853e-09
-2.0016626e-06
3.6886644e-09
-1.4145056e-06
2.6575808e-09
-9.6940335e-07
1.8869951e-09
-6.5614983e-07
1.3138779e-09
-4.4677843e-07
8.8982066e-10
-3.0321639e-07
5.9223344e-10
-2.0439933e-07
3.8928817e-10
-1.3730739e-07
2.5298992e-10
-9.1928438e-08
1.627861e-10
-6.1314593e-08
1.0375019e-10
-4.0750269e-08
6.5362991e-11
-2.6972177e-08
4.0496888e-11
-1.774472e-08
2.4510172e-11
-1.156744e-08
1.4337664e-11
-7.4391306e-09
7.9852136e-12
-4.6901347e-09
4.1207846e-12
-2.8705144e-09
1.8845394e-12
-1.6767348e-09
6.8540109e-13
-9.0347133e-10
1.4187621e-13
-4.1164453e-10
-1.0704739e-10
-1.5445138e-08
-4.2872766e-05
-2.5734903e-08
-3.5440367e-05
-2.5172885e-08
-2.8168459e-05
-1.3595825e-08
-2.0664805e-05
-2.1037488e-09
-1.4057327e-05
4.8114744e-09
-9.2685083e-06
7.1942041e-09
-6.1149153e-06
7.1916614e-09
-4.1120771e-06
6.1716301e-09
-2.8310701e-06
4.9020095e-09
-2.000393e-06
3.6857473e-09
-1.4132893e-06
2.6546324e-09
-9.6837225e-07
1.8842095e-09
-6.5537939e-07
1.3115944e-09
-4.4620583e-07
8.8817245e-10
-3.0279296e-07
5.9111444e-10
-2.0410229e-07
3.8856093e-10
-1.3710482e-07
2.5254147e-10
-9.1792434e-08
1.6252073e-10
-6.1224564e-08
1.0360351e-10
-4.0691363e-08
6.5288146e-11
-2.6933856e-08
4.0463995e-11
-1.7719903e-08
2.4504328e-11
-1.1551477e-08
1.4345103e-11
-7.4289762e-09
7.9990069e-12
-4.6837889e-09
4.1412606e-12
-2.8666577e-09
1.8962049e-12
-1.6744944e-09
6.9037169e-13
-9.0226913e-10
1.4169168e-13
-4.1109843e-10
-1.069057e-10
-1.5467806e-08
-4.2857298e-05
-2.578917e-08
-3.5430046e-05
-2.5273618e-08
-2.8168974e-05
-1.3710111e-08
-2.0676368e-05
-2.187324e-09
-1.406885e-05
4.7657274e-09
-9.2754614e-06
7.1717403e-09
-6.1173213e-06
7.1809344e-09
-4.1120863e-06
6.1664471e-09
-2.8300556e-06
4.8987014e-09
-1.9991253e-06
3.6828297e-09
-1.4120734e-06
2.6516027e-09
-9.6734104e-07
1.8814536e-09
-6.5460923e-07
1.3093252e-09
-4.4563372e-07
8.864862e-10
-3.0237011e-07
5.8991944e-10
-2.0380573e-07
3.8773989e-10
-1.3690263e-07
2.519879e-10
-9.1656689e-08
1.6214747e-10
-6.1134713e-08
1.0335682e-10
-4.0632572e-08
6.5116785e-11
-2.6895608e-08
4.0349912e-11
-1.7695133e-08
2.4420276e-11
-1.1535543e-08
1.4287206e-11
-7.4188392e-09
7.9565478e-12
-4.6774537e-09
4.1071111e-12
-2.8628071e-09
1.8778496e-12
-1.6722575e-09
6.8290296e-13
-9.0106877e-10
1.4148247e-13
-4.1055317e-10
-1.0676422e-10
-1.5490392e-08
-4.2841808e-05
-2.5843939e-08
-3.5419692e-05
-2.5374047e-08
-2.8169444e-05
-1.3824683e-08
-2.0687918e-05
-2.2710616e-09
-1.4080403e-05
4.7199563e-09
-9.2824524e-06
7.1493265e-09
-6.1197507e-06
7.170508e-09
-4.1121075e-06
6.1609219e-09
-2.829046e-06
4.8951713e-09
-1.9978595e-06
3.6797843e-09
-1.410858e-06
2.6485596e-09
-9.6630983e-07
1.8788307e-09
-6.538395e-07
1.3072191e-09
-4.4506214e-07
8.8497238e-10
-3.0194786e-07
5.8892209e-10
-2.0350972e-07
3.8713448e-10
-1.3670084e-07
2.5163726e-10
-9.1521227e-08
1.619767e-10
-6.1045056e-08
1.032806e-10
-4.0573908e-08
6.5109856e-11
-2.6857441e-08
4.0366567e-11
-1.7670414e-08
2.4460429e-11
-1.1519641e-08
1.4327286e-11
-7.408723e-09
7.9973892e-12
-4.6711314e-09
4.1468685e-12
-2.8589644e-09
1.9016779e-12
-1.6700251e-09
6.9297684e-13
-8.9987082e-10
1.4119381e-13
-4.1000902e-10
-1.0662302e-10
-1.5512797e-08
-4.2826295e-05
-2.589882e-08
-3.5409306e-05
-2.5474196e-08
-2.8169869e-05
-1.3939696e-08
-2.0699452e-05
-2.3553303e-09
-1.4091988e-05
4.6740713e-09
-9.2894818e-06
7.1271864e-09
-6.1222038e-06
7.1597933e-09
-4.1121401e-06
6.1550032e-09
-2.8280412e-06
4.8913525e-09
-1.9965959e-06
3.6765151e-09
-1.4096432e-06
2.6453608e-09
-9.652787e-07
1.8759061e-09
-6.5307004e-07
1.3047984e-09
-4.4449105e-07
8.8314599e-10
-3.015262e-07
5.8762634e-10
-2.0321422e-07
3.8622945e-10
-1.3649944e-07
2.5101945e-10
-9.1386039e-08
1.6155095e-10
-6.0955584e-08
1.0298954e-10
-4.0515363e-08
6.4899841e-11
-2.6819351e-08
4.0219772e-11
-1.7645744e-08
2.4347591e-11
-1.150377e-08
1.4244974e-11
-7.3986259e-09
7.9352835e-12
-4.664821e-09
4.095701e-12
-2.855129e-09
1.8734434e-12
-1.6677968e-09
6.8143319e-13
-8.9867514e-10
1.4092289e-13
-4.094659e-10
-1.064821e-10
-1.5534943e-08
-4.281076e-05
-2.5953143e-08
-3.5398888e-05