/*--------------------------------*- C++ -*----------------------------------*\
| =========                 |                                                 |
| \\      /  F ield         | OpenFOAM: The Open Source CFD Toolbox           |
|  \\    /   O peration     | Version:  v2012                                 |
|   \\  /    A nd           | Website:  www.openfoam.com                      |
|    \\/     M anipulation  |                                                 |
\*---------------------------------------------------------------------------*/
FoamFile
{
    version     2.0;
    format      ascii;
    class       volScalarField;
    location    "650";
    object      rho;
}
// * * * * * * * * * * * * * * * * * * * * * * * * * * * * * * * * * * * * * //

dimensions      [1 -3 0 0 0 0 0];


internalField   nonuniform List<scalar> 
24000
(
22.324579
21.988472
20.484642
17.306374
13.476729
10.159175
7.691201
5.9602529
4.7694295
3.9652448
3.3389298
2.7817468
2.3545219
2.0623737
1.8523569
1.6970998
1.5831374
1.4984821
1.4346418
1.3859645
1.3484521
1.3191944
1.2961155
1.2777359
1.262986
1.2510772
1.2414176
1.2335545
1.2271375
1.2218911
22.326403
21.992018
20.495121
17.326451
13.497336
10.173375
7.7007238
5.9659725
4.7724062
3.9666011
3.3394284
2.7818094
2.3543544
2.0619924
1.8518586
1.6965918
1.5826592
1.4980481
1.4342552
1.3856213
1.348145
1.318916
1.2958595
1.2774971
1.2627603
1.2508615
1.2412093
1.2333517
1.2269385
1.2216948
22.328267
21.995667
20.506006
17.346551
13.517376
10.187483
7.7096406
5.9708308
4.7745262
3.9672544
3.3393691
2.7813731
2.3537906
2.0613397
1.8511857
1.6959736
1.5821119
1.4975672
1.4338329
1.3852491
1.3478131
1.3186155
1.295583
1.2772388
1.2625158
1.2506274
1.2409829
1.233131
1.2267218
1.2214809
22.330133
21.999377
20.51692
17.36652
13.537207
10.201579
7.7182814
5.9753839
4.7764462
3.9677718
3.3391775
2.7808346
2.3531866
2.0606987
1.850561
1.6954305
1.5816529
1.4971774
1.4334975
1.384955
1.3475496
1.3183745
1.2953589
1.2770276
1.2623144
1.2504335
1.2407947
1.2329472
1.2265411
1.2213025
22.331997
22.003108
20.527834
17.386415
13.556919
10.2157
7.7267355
5.9797373
4.7782047
3.9681573
3.3388584
2.7801705
2.352479
2.0599796
1.8498736
1.6948319
1.5811419
1.496738
1.4331151
1.3846172
1.3472456
1.318096
1.2950998
1.2767832
1.2620813
1.2502091
1.2405769
1.2327343
1.2263319
1.221096
22.333858
22.006843
20.538716
17.406256
13.576578
10.229857
7.7350903
5.9839756
4.7798694
3.9684651
3.3384593
2.7794244
2.3517037
2.0592106
1.8491479
1.694203
1.5806065
1.4962784
1.4327154
1.3842638
1.3469271
1.3178037
1.2948273
1.2765257
1.2618352
1.2499718
1.2403463
1.2325088
1.2261102
1.2208771
22.335712
22.010573
20.549559
17.426055
13.596211
10.244055
7.7433893
5.9881457
4.7814741
3.9687214
3.3380044
2.7786193
2.3508788
2.0584044
1.8483938
1.6935514
1.5800527
1.4958034
1.4323025
1.3838987
1.346598
1.3175015
1.2945453
1.2762591
1.2615803
1.2497258
1.2401073
1.2322749
1.2258803
1.22065
22.337561
22.014292
20.560363
17.445825
13.615843
10.258299
7.7516652
5.9922792
4.7830412
3.9689437
3.3375112
2.7777733
2.3500199
2.0575727
1.8476201
1.6928846
1.5794866
1.4953182
1.4318807
1.3835257
1.3462615
1.3171923
1.2942566
1.275986
1.2613191
1.2494738
1.2398621
1.232035
1.2256444
1.2204171
22.339402
22.017998
20.571127
17.465569
13.635484
10.272592
7.7599327
5.9963903
4.7845851
3.969143
3.3369914
2.7768985
2.3491384
2.0567238
1.8468333
1.6922078
1.5789126
1.4948266
1.4314532
1.3831477
1.3459206
1.3168789
1.2939639
1.275709
1.2610541
1.2492179
1.2396133
1.2317915
1.225405
1.2201806
22.341236
22.021691
20.58185
17.485296
13.655143
10.286935
7.7682084
6.0004923
4.7861154
3.9693268
3.336453
2.7760034
2.3482399
2.0558628
1.8460379
1.6915242
1.5783333
1.4943305
1.431022
1.3827663
1.3455765
1.3165626
1.2936684
1.2754293
1.2607865
1.2489594
1.2393619
1.2315455
1.225163
1.2199415
22.343063
22.025368
20.592534
17.505008
13.674829
10.301331
7.7764962
6.0045964
4.7876403
3.9695005
3.3359011
2.7750936
2.347329
2.0549936
1.8452369
1.6908364
1.5777506
1.4938317
1.4305887
1.382383
1.3452306
1.3162445
1.2933712
1.2751479
1.2605172
1.2486994
1.2391089
1.231298
1.2249195
1.219701
22.344882
22.029031
20.603181
17.524708
13.694542
10.315779
7.7848064
6.0087046
4.7891633
3.9696676
3.3353394
2.7741728
2.3464089
2.0541186
1.844432
1.6901459
1.5771659
1.4933313
1.430154
1.3819985
1.3448835
1.3159254
1.293073
1.2748655
1.2602469
1.2484384
1.238855
1.2310495
1.224675
1.2194596
22.346694
22.032679
20.613793
17.544401
13.714291
10.330281
7.7931387
6.0128204
4.7906861
3.9698308
3.3347705
2.7732432
2.3454825
2.0532397
1.8436247
1.6894541
1.5765803
1.4928302
1.4297186
1.3816134
1.3445359
1.3156057
1.2927742
1.2745826
1.259976
1.2481769
1.2386006
1.2308005
1.22443
1.2192176
22.348499
22.036312
20.624371
17.564086
13.734073
10.344837
7.8015006
6.0169499
4.7922108
3.9699919
3.3341961
2.7723067
2.3445523
2.052358
1.842816
1.6887614
1.5759942
1.4923288
1.4292829
1.3812281
1.344188
1.3152857
1.2924752
1.2742994
1.2597049
1.2479151
1.2383459
1.2305512
1.2241847
1.2189754
22.350296
22.03993
20.634914
17.583766
13.753893
10.359448
7.8098906
6.0210935
4.7937393
3.9701522
3.3336176
2.7713646
2.3436183
2.0514747
1.8420069
1.6880686
1.5754082
1.4918276
1.4288474
1.3808428
1.3438403
1.3149659
1.2921763
1.2740163
1.2594339
1.2476533
1.2380912
1.2303019
1.2239396
1.2187333
22.352086
22.043532
20.645422
17.603441
13.773752
10.374114
7.8183137
6.0252507
4.7952728
3.9703128
3.3330359
2.7704184
2.3426809
2.0505902
1.8411977
1.6873761
1.5748225
1.4913267
1.4284123
1.3804579
1.3434929
1.3146463
1.2918775
1.2737334
1.259163
1.2473916
1.2378366
1.2300527
1.2236945
1.2184912
22.353869
22.04712
20.655897
17.623113
13.793649
10.388835
7.8267686
6.0294254
4.7968125
3.9704744
3.3324518
2.7694688
2.3417408
2.049705
1.8403885
1.6866843
1.5742375
1.4908265
1.4279778
1.3800736
1.3431459
1.3143271
1.2915792
1.2734508
1.2588925
1.2471303
1.2375824
1.2298038
1.2234498
1.2182494
22.355645
22.050692
20.66634
17.642781
13.81359
10.403613
7.8352588
6.0336196
4.7983605
3.9706376
3.3318658
2.7685163
2.3407994
2.0488193
1.8395799
1.6859932
1.5736533
1.4903269
1.427544
1.3796898
1.3427994
1.3140083
1.2912812
1.2731686
1.2586223
1.2468693
1.2373284
1.2295552
1.2232053
1.2180079
22.357413
22.05425
20.676751
17.662447
13.83357
10.418447
7.8437834
6.0378301
4.7999178
3.9708028
3.3312783
2.7675611
2.3398574
2.0479336
1.8387721
1.6853031
1.5730702
1.4898284
1.427111
1.3793068
1.3424536
1.3136902
1.2909838
1.2728869
1.2583527
1.2466088
1.2370749
1.2293071
1.2229612
1.2177669
22.359174
22.057793
20.687131
17.68211
13.853593
10.433337
7.8523445
6.0420597
4.8014826
3.9709704
3.3306896
2.7666032
2.3389139
2.0470481
1.8379653
1.684614
1.5724881
1.4893308
1.4266788
1.3789245
1.3421084
1.3133727
1.290687
1.2726057
1.2580835
1.2463488
1.2368219
1.2290595
1.2227176
1.2175262
22.360928
22.061322
20.697476
17.701771
13.873658
10.448284
7.860942
6.0463113
4.8030553
3.9711406
3.3300999
2.765643
2.337969
2.046163
1.8371594
1.6839263
1.5719071
1.4888344
1.4262476
1.3785431
1.3417641
1.3130559
1.2903909
1.2723253
1.2578149
1.2460894
1.2365695
1.2288124
1.2224745
1.2172861
22.362675
22.064835
20.707789
17.72143
13.893765
10.463288
7.8695765
6.050581
4.8046362
3.9713138
3.3295095
2.7646811
2.337023
2.0452782
1.8363546
1.6832399
1.5713273
1.4883389
1.4258173
1.3781625
1.3414205
1.3127398
1.2900954
1.2720453
1.2575468
1.2458305
1.2363176
1.2285658
1.2222319
1.2170465
22.364415
22.068335
20.71807
17.741086
13.913917
10.47835
7.8782491
6.0548706
4.8062258
3.9714901
3.3289184
2.7637177
2.3360769
2.0443939
1.8355511
1.6825548
1.5707489
1.4878447
1.4253882
1.3777829
1.3410778
1.3124245
1.2898006
1.2717661
1.2572795
1.2455723
1.2360663
1.2283199
1.2219899
1.2168075
22.366148
22.071819
20.728322
17.76074
13.93411
10.49347
7.8869593
6.0591834
4.8078243
3.9716696
3.328327
2.7627527
2.3351311
2.0435105
1.8347491
1.681871
1.5701718
1.4873516
1.4249601
1.3774042
1.3407359
1.3121099
1.2895065
1.2714876
1.2570127
1.2453146
1.2358156
1.2280745
1.2217485
1.2165691
22.367873
22.075289
20.738541
17.780391
13.954348
10.508646
7.8957089
6.063516
4.8094337
3.9718525
3.3277353
2.7617864
2.3341843
2.0426275
1.8339481
1.6811888
1.5695961
1.4868598
1.4245332
1.3770265
1.3403949
1.3117961
1.2892132
1.2712098
1.2567467
1.2450576
1.2355656
1.2278297
1.2215078
1.2163314
22.369592
22.078745
20.748727
17.80004
13.97463
10.523882
7.9044964
6.0678689
4.8110543
3.9720388
3.3271434
2.7608183
2.3332365
2.0417453
1.8331484
1.6805079
1.5690216
1.4863692
1.4241072
1.3766497
1.3400546
1.3114831
1.2889205
1.2709325
1.2564813
1.2448011
1.2353161
1.2275854
1.2212676
1.2160941
22.371303
22.082186
20.758879
17.819686
13.994954
10.539175
7.9133244
6.0722457
4.8126839
3.9722287
3.3265513
2.7598488
2.3322884
2.0408637
1.8323501
1.6798286
1.5684485
1.4858798
1.4236823
1.3762739
1.3397153
1.311171
1.2886287
1.2706561
1.2562167
1.2445455
1.2350673
1.2273419
1.221028
1.2158574
22.373007
22.085612
20.768999
17.839328
14.015324
10.554527
7.9221909
6.0766435
4.8143228
3.9724222
3.3259591
2.7588781
2.3313405
2.0399832
1.8315535
1.6791507
1.5678768
1.4853916
1.4232585
1.3758991
1.3393769
1.3108596
1.2883376
1.2703803
1.2559527
1.2442905
1.2348191
1.227099
1.2207891
1.2156214
22.374705
22.089023
20.779089
17.858969
14.035736
10.569938
7.9310986
6.0810621
4.8159712
3.9726194
3.325367
2.7579064
2.3303931
2.0391034
1.8307583
1.6784744
1.5673066
1.4849047
1.4228359
1.3755253
1.3390395
1.3105491
1.2880474
1.2701054
1.2556894
1.2440362
1.2345717
1.2268568
1.2205508
1.215386
22.376395
22.092419
20.789146
17.878605
14.056195
10.585408
7.9400454
6.0855051
4.8176292
3.9728205
3.324775
2.7569336
2.3294449
2.0382244
1.8299642
1.6777996
1.5667377
1.484419
1.4224144
1.3751524
1.3387029
1.3102394
1.2877578
1.2698311
1.2554267
1.2437825
1.2343248
1.2266152
1.220313
1.2151511
22.378079
22.0958
20.79917
17.898237
14.076698
10.600937
7.9490341
6.0899702
4.8192973
3.9730254
3.324183
2.7559598
2.328496
2.0373462
1.8291715
1.6771263
1.5661702
1.4839348
1.4219941
1.3747807
1.3383672
1.3099305
1.2874691
1.2695577
1.2551649
1.2435296
1.2340787
1.2263743
1.2200759
1.214917
22.379755
22.099165
20.80916
17.917865
14.097245
10.616526
7.9580625
6.0944565
4.8209781
3.9732341
3.3235912
2.7549847
2.3275471
2.0364688
1.8283805
1.6764545
1.5656041
1.4834517
1.4215748
1.3744099
1.3380324
1.3096225
1.2871811
1.2692849
1.2549037
1.2432772
1.2338332
1.226134
1.2198395
1.2146835
22.381424
22.102515
20.819115
17.937488
14.117839
10.632174
7.9671335
6.0989677
4.8226697
3.9734469
3.3229995
2.7540086
2.3265985
2.0355924
1.827591
1.6757841
1.5650394
1.4829698
1.4211567
1.3740402
1.3376986
1.3093153
1.286894
1.2690129
1.2546433
1.2430256
1.2335885
1.2258943
1.2196038
1.2144507
22.383087
22.105848
20.829039
17.957108
14.138475
10.647882
7.9762447
6.1035018
4.8243711
3.9736636
3.3224081
2.7530313
2.3256503
2.0347168
1.8268026
1.6751153
1.5644761
1.482489
1.4207395
1.3736713
1.3373655
1.3090089
1.2866075
1.2687415
1.2543835
1.2427746
1.2333442
1.2256552
1.2193687
1.2142185
22.384742
22.109166
20.83893
17.97672
14.15916
10.66365
7.9853992
6.1080577
4.8260825
3.9738843
3.3218169
2.7520532
2.3247013
2.033842
1.8260157
1.6744479
1.5639142
1.4820096
1.4203236
1.3733034
1.3370334
1.3087034
1.2863219
1.268471
1.2541245
1.2425244
1.2331007
1.2254169
1.2191343
1.2139869
22.38639
22.112468
20.848788
17.996329
14.17989
10.679478
7.9945946
6.1126389
4.8278039
3.9741092
3.3212261
2.7510743
2.323752
2.032968
1.8252303
1.6737822
1.5633537
1.4815315
1.4199089
1.3729365
1.3367022
1.3083987
1.286037
1.2682011
1.2538661
1.2422748
1.2328578
1.2251791
1.2189005
1.2137559
22.388031
22.115753
20.858609
18.015931
14.200665
10.695367
8.0038338
6.1172437
4.8295357
3.9743383
3.3206357
2.7500946
2.3228028
2.0320951
1.8244465
1.6731179
1.5627945
1.4810548
1.4194953
1.3725707
1.336372
1.3080949
1.285753
1.2679321
1.2536085
1.242026
1.2326157
1.2249421
1.2186673
1.2135256
22.389666
22.119023
20.868395
18.035526
14.221488
10.711316
8.0131145
6.1218709
4.8312795
3.9745715
3.3200456
2.7491141
2.3218539
2.0312229
1.8236638
1.6724549
1.5622366
1.480579
1.4190826
1.3722058
1.3360425
1.3077918
1.2854696
1.2676637
1.2533515
1.2417778
1.2323741
1.2247057
1.2184347
1.2132958
22.391293
22.122276
20.878146
18.055115
14.242356
10.727326
8.0224397
6.1265239
4.8330361
3.974809
3.3194559
2.7481327
2.3209053
2.0303517
1.8228825
1.6717935
1.5616802
1.4801046
1.4186711
1.371842
1.3357141
1.3074895
1.2851871
1.2673961
1.2530952
1.2415304
1.2321334
1.22447
1.2182028
1.2130667
22.392914
22.125512
20.887864
18.074695
14.263274
10.743397
8.0318072
6.1312012
4.834803
3.9750506
3.3188667
2.7471503
2.3199561
2.0294811
1.8221026
1.6711335
1.5611251
1.4796312
1.4182605
1.3714791
1.3353864
1.3071881
1.2849054
1.2671292
1.2528397
1.2412835
1.2318932
1.2242349
1.2179714
1.2128382
22.394527
22.128733
20.897547
18.094269
14.284239
10.759529
8.0412196
6.1359015
4.8365803
3.9752966
3.318278
2.7461672
2.3190069
2.0286116
1.8213244
1.6704751
1.5605714
1.4791593
1.4178512
1.3711172
1.3350597
1.3068876
1.2846245
1.2668632
1.2525849
1.2410374
1.2316538
1.2240006
1.2177408
1.2126105
22.396134
22.131937
20.907193
18.113833
14.305251
10.775723
8.0506751
6.1406282
4.838368
3.9755469
3.3176898
2.7451837
2.3180577
2.0277429
1.8205475
1.669818
1.5600189
1.4786885
1.417443
1.3707562
1.3347338
1.3065878
1.2843442
1.2665977
1.2523308
1.2407919
1.231415
1.2237667
1.2175108
1.2123833
22.397734
22.135125
20.9168
18.133388
14.326314
10.791977
8.0601759
6.1453795
4.8401664
3.9758017
3.3171023
2.7441997
2.3171091
2.0268752
1.8197717
1.6691625
1.5594678
1.478219
1.4170359
1.3703962
1.3344089
1.3062889
1.2840647
1.2663331
1.2520774
1.2405471
1.2311768
1.2235336
1.2172815
1.2121568
22.399328
22.138296
20.926371
18.152933
14.347424
10.808294
8.0697209
6.1501546
4.8419767
3.9760609
3.3165154
2.7432152
2.3161606
2.0260082
1.8189973
1.6685082
1.5589181
1.4777506
1.4166298
1.3700371
1.3340848
1.3059907
1.283786
1.2660691
1.2518248
1.2403029
1.2309393
1.2233011
1.2170529
1.2119309
22.400914
22.141451
20.935904
18.172467
14.368586
10.824672
8.0793116
6.1549569
4.8438009
3.9763246
3.3159293
2.74223
2.3152117
2.0251418
1.8182244
1.6678556
1.5583697
1.4772833
1.4162248
1.3696791
1.3337616
1.3056935
1.2835082
1.2658059
1.2515728
1.2400596
1.2307025
1.2230693
1.2168249
1.2117058
22.402494
22.144589
20.945402
18.191992
14.389797
10.841111
8.0889474
6.1597839
4.8456357
3.9765927
3.3153439
2.741244
2.3142628
2.0242767
1.817453
1.6672041
1.5578225
1.4768171
1.4158207
1.369322
1.3334393
1.3053969
1.283231
1.2655433
1.2513215
1.2398168
1.2304662
1.222838
1.2165974
1.211481
22.404067
22.14771
20.954862
18.211502
14.41106
10.857613
8.0986293
6.1646358
4.8474813
3.9768653
3.3147593
2.7402576
2.3133142
2.0234124
1.8166826
1.6665541
1.5572766
1.4763523
1.4154177
1.3689659
1.3331178
1.3051012
1.2829546
1.2652816
1.2510709
1.2395748
1.2302307
1.2226075
1.2163707
1.211257
22.405634
22.150813
20.964281
18.231001
14.432377
10.874177
8.1083573
6.1695153
4.8493377
3.9771425
3.3141755
2.7392712
2.312366
2.0225488
1.8159135
1.6659055
1.5567319
1.4758886
1.4150158
1.3686106
1.3327971
1.3048062
1.282679
1.2650206
1.2508209
1.2393335
1.2299958
1.2223776
1.2161444
1.2110335
22.407193
22.1539
20.973659
18.250485
14.453744
10.890803
8.1181318
6.1744199
4.8512051
3.9774243
3.3135926
2.7382845
2.311418
2.0216858
1.8151458
1.6652583
1.5561886
1.4754261
1.414615
1.3682563
1.3324774
1.3045121
1.2824041
1.2647603
1.2505717
1.2390928
1.2297617
1.2221485
1.2159189
1.2108108
22.408746
22.15697
20.982997
18.269954
14.475168
10.907492
8.1279536
6.1793502
4.8530849
3.9777107
3.3130105
2.7372975
2.3104698
2.0208239
1.8143796
1.6646123
1.5556465
1.4749645
1.4142151
1.3679027
1.3321584
1.3042187
1.2821299
1.2645006
1.250323
1.2388526
1.2295281
1.2219198
1.2156939
1.2105885
22.410292
22.160022
20.992295
18.289409
14.496644
10.924242
8.1378222
6.1843089
4.8549789
3.9780016
3.3124294
2.73631
2.3095218
2.0199627
1.8136145
1.6639677
1.5551057
1.4745041
1.4138163
1.3675503
1.3318403
1.3039262
1.2818564
1.2642417
1.2500752
1.2386132
1.2292952
1.2216918
1.2154697
1.2103671
22.411832
22.163057
21.001554
18.308845
14.518175
10.941055
8.1477393
6.1892928
4.8568838
3.9782971
3.3118493
2.7353223
2.3085739
2.0191025
1.8128504
1.6633244
1.5545659
1.4740448
1.4134184
1.3671987
1.331523
1.3036344
1.2815837
1.2639834
1.249828
1.2383744
1.2290629
1.2214644
1.215246
1.2101462
22.413365
22.166074
21.010773
18.328269
14.539761
10.957931
8.1577034
6.1943036
4.8587996
3.9785974
3.3112703
2.7343345
2.3076266
2.0182429
1.8120877
1.6626825
1.5540275
1.4735868
1.4130215
1.3668482
1.3312067
1.3033434
1.2813118
1.2637259
1.2495816
1.2381364
1.2288313
1.2212377
1.2150231
1.209926
22.414891
22.169073
21.019949
18.347671
14.5614
10.974869
8.1677172
6.199343
4.8607266
3.9789025
3.3106925
2.7333468
2.3066794
2.0173838
1.8113264
1.6620417
1.5534902
1.4731298
1.4126256
1.3664983
1.330891
1.3030531
1.2810405
1.263469
1.2493357
1.2378989
1.2286002
1.2210115
1.2148007
1.2097062
22.416411
22.172054
21.029082
18.367058
14.583094
10.99187
8.1777786
6.2044081
4.862665
3.9792124
3.3101158
2.7323591
2.3057323
2.0165259
1.8105663
1.6614023
1.5529542
1.4726738
1.4122307
1.3661494
1.3305762
1.3027636
1.28077
1.2632129
1.2490905
1.2376622
1.2283698
1.220786
1.2145789
1.2094871
22.417924
22.175017
21.038174
18.386427
14.604841
11.008934
8.1878905
6.2095013
4.8646173
3.9795271
3.3095403
2.7313714
2.3047853
2.0156687
1.8098071
1.660764
1.5524193
1.4722188
1.4118368
1.3658013
1.3302621
1.3024748
1.2805002
1.2629574
1.248846
1.237426
1.22814
1.2205611
1.2143576
1.2092685
22.419431
22.177961
21.047226
18.405775
14.626642
11.02606
8.1980509
6.214623
4.8665828
3.9798464
3.308966
2.7303837
2.3038385
2.0148121
1.809049
1.6601269
1.5518854
1.4717649
1.4114439
1.3654541
1.3299489
1.3021869
1.2802312
1.2627027
1.2486021
1.2371906
1.227911
1.2203369
1.214137
1.2090506
22.420932
22.180888
21.056239
18.425106
14.648497
11.043248
8.2082623
6.2197713
4.8685594
3.9801705
3.308393
2.729396
2.3028921
2.0139559
1.8082922
1.659491
1.5513526
1.4713119
1.4110517
1.3651077
1.3296364
1.3018995
1.2799627
1.2624485
1.2483588
1.2369557
1.2276824
1.2201133
1.2139169
1.2088331
22.422426
22.183796
21.065211
18.444415
14.670404
11.060501
8.2185235
6.2249489
4.8705471
3.9804995
3.3078215
2.7284085
2.3019461
2.0131007
1.8075367
1.6588563
1.550821
1.4708601
1.4106605
1.3647623
1.3293248
1.301613
1.279695
1.2621951
1.2481162
1.2367214
1.2274546
1.2198903
1.2136974
1.2086164
22.423914
22.186685
21.074138
18.463705
14.692366
11.077815
8.2288361
6.2301545
4.8725464
3.9808332
3.3072514
2.7274213
2.3010003
2.0122462
1.8067821
1.6582229
1.5502905
1.4704093
1.4102702
1.3644176
1.3290139
1.3013272
1.2794279
1.2619423
1.2478743
1.2364877
1.2272274
1.2196679
1.2134785
1.2084002
22.425395
22.189557
21.083023
18.482973
14.71438
11.095193
8.2391997
6.2353879
4.874558
3.9811718
3.3066827
2.7264344
2.3000545
2.0113925
1.8060283
1.6575904
1.5497612
1.4699595
1.4098809
1.3640739
1.3287038
1.3010421
1.2791616
1.2616901
1.2476331
1.2362547
1.2270008
1.219446
1.2132603
1.2081847
22.426871
22.192409
21.091865
18.502219
14.736447
11.112633
8.2496151
6.2406515
4.8765844
3.9815151
3.3061155
2.7254479
2.2991088
2.010539
1.8052755
1.656959
1.5492327
1.4695104
1.4094924
1.3637307
1.3283943
1.3007576
1.2788958
1.2614385
1.2473924
1.2360222
1.2267746
1.2192246
1.2130427
1.2079697
22.42834
22.195244
21.100667
18.521444
14.758566
11.130136
8.2600829
6.245943
4.8786227
3.9818633
3.3055498
2.7244617
2.2981636
2.0096859
1.8045242
1.6563287
1.5487052
1.4690623
1.4091048
1.3633884
1.3280857
1.3004739
1.2786309
1.2611876
1.2471523
1.2357903
1.226549
1.2190039
1.2128257
1.2077553
22.429803
22.19806
21.109428
18.540644
14.780737
11.147703
8.2706029
6.2512637
4.8806724
3.9822164
3.3049857
2.7234758
2.2972189
2.0088339
1.8037736
1.6556995
1.5481786
1.4686151
1.408718
1.3630469
1.3277777
1.3001908
1.2783664
1.2609374
1.2469128
1.2355591
1.226324
1.2187837
1.2126092
1.2075414
22.43126
22.200857
21.118148
18.559823
14.802962
11.165333
8.2811766
6.2566148
4.8827336
3.9825744
3.3044234
2.7224904
2.2962743
2.0079825
1.8030239
1.6550713
1.5476533
1.468169
1.408332
1.3627062
1.3274705
1.2999085
1.2781028
1.2606878
1.2466739
1.2353286
1.2260996
1.2185641
1.2123932
1.2073281
22.432711
22.203635
21.126824
18.578975
14.825237
11.183025
8.291803
6.2619941
4.8848069
3.9829373
3.3038628
2.7215056
2.2953297
2.0071314
1.8022748
1.654444
1.5471288
1.4677238
1.4079467
1.3623662
1.3271638
1.2996267
1.2778396
1.2604388
1.2464355
1.2350985
1.2258758
1.218345
1.2121777
1.2071152
22.434156
22.206395
21.135455
18.598102
14.847564
11.20078
8.3024842
6.2674042
4.8868944
3.9833052
3.303304
2.7205213
2.2943853
2.0062804
1.8015269
1.6538178
1.5466052
1.4672794
1.4075624
1.362027
1.326858
1.2993457
1.2775771
1.2601904
1.2461978
1.2348691
1.2256526
1.2181266
1.2119628
1.2069029
22.435595
22.209135
21.144044
18.617206
14.869942
11.218599
8.3132191
6.2728443
4.8889954
3.983678
3.3027471
2.7195378
2.2934413
2.0054304
1.8007802
1.6531924
1.5460825
1.4668357
1.4071789
1.3616885
1.3265528
1.2990652
1.2773152
1.2599426
1.2459607
1.2346402
1.22543
1.2179088
1.2117484
1.2066911
22.437028
22.211857
21.15259
18.63628
14.892371
11.23648
8.3240094
6.2783138
4.891108
3.9840559
3.3021922
2.7185549
2.2924978
2.0045807
1.8000339
1.652568
1.5455606
1.4663929
1.4067962
1.3613508
1.3262485
1.2987855
1.277054
1.2596954
1.2457242
1.2344119
1.225208
1.2176915
1.2115346
1.2064799
22.438456
22.214559
21.161095
18.655331
14.914851
11.254425
8.3348547
6.2838151
4.8932322
3.9844388
3.3016392
2.7175726
2.2915544
2.0037317
1.7992883
1.6519445
1.5450396
1.4659508
1.4064142
1.3610136
1.3259445
1.2985063
1.2767932
1.2594487
1.2454883
1.234184
1.2249865
1.2174747
1.2113212
1.2062691
22.439878
22.217242
21.169559
18.674351
14.93738
11.272433
8.345756
6.2893459
4.8953688
3.9848268
3.3010882
2.716591
2.2906111
2.0028826
1.7985435
1.6513218
1.5445196
1.4655097
1.4060329
1.3606772
1.3256414
1.2982278
1.2765332
1.2592026
1.245253
1.2339567
1.2247655
1.2172584
1.2111084
1.206059
22.441294
22.219905
21.177979
18.693343
14.95996
11.290503
8.3567137
6.2949078
4.897519
3.98522
3.3005394
2.7156103
2.2896678
2.0020338
1.7977998
1.6507
1.5440004
1.4650695
1.4056523
1.3603414
1.3253388
1.2979498
1.2762738
1.258957
1.2450182
1.2337299
1.224545
1.2170426
1.2108962
1.2058494
22.442704
22.222549
21.186354
18.712308
14.982589
11.308636
8.3677278
6.3005015
4.8996835
3.9856183
3.2999927
2.7146305
2.2887251
2.0011859
1.7970568
1.650079
1.543482
1.46463
1.4052724
1.3600064
1.3250369
1.2976725
1.276015
1.2587122
1.2447839
1.2335038
1.224325
1.2168274
1.2106846
1.2056403
22.444109
22.225174
21.194685
18.731239
15.005267
11.326834
8.3787997
6.3061253
4.90186
3.9860219
3.2994484
2.7136516
2.2877828
2.0003382
1.7963141
1.6494587
1.5429641
1.464191
1.4048932
1.359672
1.3247355
1.2973958
1.2757566
1.2584677
1.2445501
1.2332781
1.2241055
1.2166125
1.2104734
1.2054316
22.445508
22.227779
21.202972
18.750143
15.027994
11.345093
8.3899287
6.3117818
4.9040484
3.9864307
3.2989064
2.7126737
2.2868404
1.9994906
1.7955719
1.6488393
1.5424471
1.4637527
1.4045148
1.3593383
1.3244349
1.2971196
1.2754989
1.2582239
1.2443168
1.2330531
1.2238865
1.2163982
1.2102627
1.2052235
22.446902
22.230364
21.211216
18.769013
15.050768
11.363416
8.4011163
6.3174692
4.9062494
3.9868448
3.2983667
2.7116966
2.285898
1.9986429
1.7948306
1.6482205
1.5419309
1.4633152
1.4041371
1.3590052
1.3241348
1.296844
1.2752416
1.2579807
1.244084
1.2328285
1.223668
1.2161844
1.2100524
1.2050158
22.44829
22.232928
21.219419
18.78785
15.073591
11.381802
8.4123621
6.3231885
4.908464
3.9872642
3.2978295
2.7107204
2.2849557
1.9977958
1.7940903
1.6476025
1.5414156
1.4628785
1.40376
1.3586727
1.3238354
1.2965691
1.274985
1.257738
1.2438518
1.2326045
1.2234502
1.2159713
1.2098427
1.2048086
22.449673
22.235473
21.22758
18.806657
15.096461
11.400251
8.4236673
6.3289406
4.910693
3.987689
3.2972948
2.7097453
2.284014
1.996949
1.7933502
1.6469851
1.5409007
1.4624425
1.4033834
1.3583406
1.3235363
1.2962945
1.2747287
1.2574956
1.2436201
1.2323808
1.2232327
1.2157585
1.2096333
1.2046018
22.45105
22.237998
21.235695
18.825426
15.119377
11.418762
8.4350321
6.334724
4.9129347
3.9881193
3.2967626
2.7087713
2.2830725
1.9961025
1.7926104
1.6463684
1.5403865
1.4620071
1.4030074
1.3580093
1.3232379
1.2960205
1.2744731
1.2572539
1.2433889
1.2321577
1.2230159
1.2155463
1.2094245
1.2043955
22.452423
22.240503
21.243765
18.844163
15.14234
11.437338
8.4464567
6.3405407
4.9151886
3.988555
3.2962332
2.7077986
2.2821309
1.9952557
1.7918711
1.6457523
1.5398728
1.4615722
1.402632
1.3576785
1.32294
1.295747
1.2742179
1.2570125
1.2431582
1.231935
1.2227994
1.2153344
1.209216
1.2041896
22.453789
22.242987
21.25179
18.862863
15.165348
11.455976
8.4579422
6.3463896
4.9174554
3.9889962
3.2957065
2.7068269
2.2811891
1.9944087
1.7911328
1.6451369
1.53936
1.461138
1.4022574
1.3573483
1.3226427
1.2954741
1.2739634
1.2567718
1.2429281
1.2317128
1.2225834
1.2151231
1.2090082
1.2039843
22.455151
22.245451
21.259772
18.881525
15.188401
11.474676
8.469488
6.3522713
4.919736
3.9894429
3.2951825
2.7058561
2.2802473
1.9935625
1.7903948
1.6445219
1.5388477
1.4607041
1.4018832
1.3570186
1.3223458
1.2952016
1.2737092
1.2565313
1.2426983
1.231491
1.2223677
1.214912
1.2088007
1.2037794
22.456508
22.247895
21.26771
18.900153
15.211499
11.493441
8.4810956
6.3581867
4.9220309
3.989895
3.2946614
2.7048864
2.2793061
1.9927163
1.789657
1.6439075
1.5383361
1.4602711
1.4015098
1.3566895
1.3220495
1.2949298
1.2734555
1.2562915
1.242469
1.2312697
1.2221525
1.2147015
1.2085938
1.203575
22.457859
22.250319
21.275606
18.918738
15.23464
11.512269
8.4927648
6.3641343
4.9243391
3.9903528
3.2941432
2.7039181
2.2783649
1.99187
1.7889193
1.6432938
1.5378248
1.4598388
1.4011367
1.3563608
1.3217537
1.2946583
1.2732023
1.2560521
1.24224
1.2310489
1.2219377
1.2144913
1.2083872
1.2033709
22.459206
22.252723
21.283461
18.937285
15.257824
11.531158
8.5044962
6.3701163
4.9266599
3.9908162
3.293628
2.7029509
2.2774235
1.9910232
1.7881823
1.6426805
1.5373141
1.4594069
1.4007641
1.3560327
1.3214584
1.2943873
1.2729496
1.2558133
1.2420116
1.2308287
1.2217234
1.2142817
1.2081811
1.2031672
22.460548
22.255106
21.291269
18.955794
15.281051
11.550113
8.5162906
6.3761312
4.9289941
3.9912852
3.2931157
2.7019851
2.2764817
1.9901767
1.7874461
1.6420677
1.5368039
1.4589753
1.4003919
1.3557049
1.3211635
1.2941167
1.2726972
1.2555747
1.2417835
1.2306086
1.2215095
1.2140724
1.2079751
1.2029638
22.461884
22.25747
21.299032
18.974258
15.30432
11.569131
8.5281476
6.38218
4.9313424
3.9917598
3.2926066
2.7010203
2.2755398
1.9893303
1.7867099
1.6414553
1.5362943
1.4585443
1.4000203
1.3553777
1.320869
1.2938466
1.2724453
1.2553366
1.2415559
1.2303891
1.2212961
1.2138636
1.2077696
1.2027608
22.463216
22.259813
21.30675
18.992683
15.327629
11.58821
8.5400683
6.3882631
4.9337053
3.9922401
3.2921006
2.7000567
2.2745985
1.9884841
1.7859737
1.6408433
1.5357853
1.4581137
1.3996492
1.3550509
1.320575
1.2935769
1.2721937
1.2550989
1.2413287
1.2301698
1.2210831
1.2136553
1.2075645
1.2025581
22.464544
22.262136
21.314424
19.011064
15.350979
11.607355
8.5520525
6.3943794
4.9360818
3.9927262
3.2915978
2.6990943
2.273657
1.9876374
1.7852378
1.640232
1.5352767
1.4576837
1.3992788
1.3547247
1.3202815
1.2933076
1.2719428
1.2548616
1.2411021
1.229951
1.2208706
1.2134473
1.2073598
1.202356
22.465866
22.264438
21.322055
19.029398
15.374368
11.626563
8.5641011
6.400531
4.9384716
3.9932179
3.291098
2.6981331
2.272715
1.9867901
1.7845024
1.6396209
1.5347683
1.4572543
1.3989085
1.3543988
1.3199882
1.2930386
1.271692
1.2546245
1.2408756
1.2297324
1.2206582
1.2132396
1.2071554
1.202154
22.467184
22.266721
21.329643
19.047691
15.397796
11.645834
8.5762143
6.406716
4.9408752
3.9937154
3.2906015
2.6971731
2.2717727
1.9859435
1.7837676
1.6390102
1.5342603
1.4568252
1.3985388
1.3540734
1.3196954
1.2927702
1.2714417
1.254388
1.2406496
1.2295143
1.2204462
1.2130322
1.2069514
1.2019526
22.468498
22.268984
21.33719
19.065935
15.421262
11.665169
8.5883921
6.412936
4.9432936
3.9942187
3.290108
2.6962145
2.2708303
1.9850968
1.7830327
1.6383998
1.5337528
1.4563964
1.3981692
1.3537482
1.319403
1.292502
1.2711918
1.2541518
1.2404238
1.2292965
1.2202345
1.212825
1.2067479
1.2017516
22.469807
22.271227
21.344693
19.084132
15.444765
11.684569
8.6006353
6.4191906
4.9457271
3.9947279
3.2896176
2.695257
2.2698883
1.9842499
1.7822977
1.6377898
1.5332459
1.455968
1.3978002
1.3534234
1.3191111
1.2922343
1.2709422
1.2539161
1.2401984
1.2290792
1.2200231
1.2126182
1.2065448
1.201551
22.471112
22.273449
21.35215
19.102284
15.468304
11.704032
8.6129438
6.4254796
4.9481747
3.9952428
3.2891302
2.6943006
2.268946
1.9834022
1.781563
1.6371801
1.5327392
1.4555397
1.3974314
1.3530989
1.3188193
1.2919668
1.2706929
1.2536806
1.2399732
1.2288622
1.2198119
1.2124116
1.2063419
1.2013506
22.472413
22.275652
21.359563
19.120383
15.491879
11.723559
8.6253182
6.4318041
4.9506364
3.9957637
3.2886457
2.6933452
2.2680034
1.9825547
1.780829
1.6365708
1.5322328
1.455112
1.3970632
1.3527748
1.3185279
1.2916997
1.2704438
1.2534455
1.2397484
1.2286456
1.2196011
1.2122054
1.2061394
1.2011505
22.473709
22.277835
21.366931
19.138434
15.515487
11.743152
8.6377587
6.4381627
4.9531129
3.9962906
3.2881639
2.6923911
2.2670605
1.9817075
1.7800951
1.6359616
1.5317265
1.4546848
1.3966953
1.3524511
1.3182368
1.2914328
1.2701951
1.2532105
1.2395238
1.2284293
1.2193907
1.2119996
1.205937
1.2009505
22.475001
22.279998
21.374256
19.156434
15.53913
11.762809
8.6502652
6.4445572
4.955605
3.9968235
3.2876848
2.6914381
2.2661179
1.9808603
1.7793609
1.6353528
1.5312206
1.454258
1.3963277
1.3521277
1.317946
1.2911662
1.2699467
1.2529758
1.2392997
1.2282132
1.2191807
1.2117942
1.2057348
1.2007508
22.476289
22.282142
21.381539
19.17438
15.562804
11.78253
8.6628385
6.450986
4.9581127
3.9973625
3.2872082
2.6904863
2.2651757
1.9800124
1.7786265
1.6347439
1.530715
1.4538311
1.3959602
1.3518045
1.3176554
1.2908998
1.2696986
1.2527413
1.2390759
1.2279972
1.218971
1.211589
1.2055328
1.2005512
22.477573
22.284266
21.38878
19.192276
15.58651
11.802318