/*--------------------------------*- C++ -*----------------------------------*\
| =========                 |                                                 |
| \\      /  F ield         | OpenFOAM: The Open Source CFD Toolbox           |
|  \\    /   O peration     | Version:  v2012                                 |
|   \\  /    A nd           | Website:  www.openfoam.com                      |
|    \\/     M anipulation  |                                                 |
\*---------------------------------------------------------------------------*/
FoamFile
{
    version     2.0;
    format      ascii;
    class       volScalarField;
    location    "650";
    object      T;
}
// * * * * * * * * * * * * * * * * * * * * * * * * * * * * * * * * * * * * * //

dimensions      [0 0 0 1 0 0 0];


internalField   nonuniform List<scalar> 
24000
(
42.69462
42.900946
43.951095
47.068582
53.674612
65.031171
81.442541
102.32188
126.18413
150.98886
179.2275
215.14475
253.78336
289.42169
322.25943
352.01674
377.72684
399.44217
417.56033
432.51768
444.78719
454.84176
463.09214
469.8743
475.45823
480.06088
483.85737
486.98983
489.57416
491.70525
42.693643
42.898768
43.942888
47.043819
53.625425
64.9644
81.356382
102.23516
126.11591
150.94895
179.21574
215.1603
253.82304
289.49672
322.36849
352.1451
377.8643
399.58136
417.69625
432.64799
444.91148
454.96055
463.20629
469.98468
475.56566
480.16606
483.9609
487.0922
489.67578
491.80645
42.69265
42.896532
43.934416
47.019085
53.577615
64.89707
81.276905
102.16144
126.06728
150.93125
179.2285
215.20959
253.90253
289.60907
322.50876
352.29801
378.02003
399.73465
417.84378
432.78815
445.04437
455.0871
463.32764
470.10193
475.67978
480.27784
484.07097
487.20109
489.7839
491.91414
42.691659
42.894263
43.925948
46.994581
53.530421
64.830008
81.200131
102.0923
126.02296
150.9176
179.2472
215.26509
253.98413
289.71719
322.63753
352.43131
378.14976
399.85792
417.95982
432.89745
445.14814
455.18651
463.42365
470.1953
475.7711
480.36759
484.15955
487.28883
489.87107
492.00098
42.690671
42.891984
43.917503
46.970236
53.483644
64.763025
81.125111
102.02612
125.98226
150.90818
179.27186
215.32909
254.07527
289.83464
322.77576
352.57501
378.29123
399.99422
418.08975
433.02094
445.26598
455.29969
463.5331
470.30181
475.87532
480.47006
484.26073
487.38907
489.97069
492.10022
42.689686
42.889705
43.909089
46.946034
53.437167
64.696104
81.051113
101.96165
125.94363
150.90126
179.30034
215.39874
254.17277
289.95815
322.91976
352.72412
378.43766
400.13506
418.22389
433.14845
445.38776
455.41682
463.64654
470.41236
475.98363
480.57666
484.36606
487.49348
490.07447
492.20362
42.688704
42.887433
43.900713
46.921943
53.39088
64.629194
80.977719
101.89823
125.90633
150.89603
179.33152
215.47257
254.27508
290.08634
323.06827
352.87755
378.58816
400.27972
418.36165
433.27942
445.5129
455.53725
463.76324
470.52615
476.09517
480.68649
484.4746
487.6011
490.18146
492.31022
42.687727
42.885169
43.892389
46.897971
53.344779
64.562294
80.9047
101.83544
125.86987
150.89189
179.36459
215.54937
254.3808
290.21783
323.21992
353.03392
378.7414
400.42694
418.50182
433.4127
445.64029
455.6599
463.88215
470.64215
476.20891
480.79852
484.58535
487.71093
490.29065
492.41901
42.686754
42.882918
43.884111
46.874091
53.298805
64.495389
80.831882
101.77303
125.83392
150.8885
179.39896
215.62829
254.48891
290.35161
323.37372
353.19227
378.89645
400.57582
418.64354
433.54745
445.76911
455.78395
464.00245
470.75953
476.32404
480.91194
484.69749
487.82214
490.40122
492.52917
42.685786
42.880678
43.875879
46.850308
53.252948
64.428464
80.75918
101.71082
125.79828
150.88561
179.43428
215.70876
254.59879
290.48706
323.52904
353.35201
379.05275
400.72585
418.78634
433.68324
445.89894
455.90899
464.12374
470.87789
476.44015
481.02633
484.8106
487.93432
490.51276
492.64031
42.684822
42.87845
43.867684
46.826611
53.207207
64.361529
80.686513
101.64868
125.76279
150.88304
179.47029
215.7904
254.70996
290.62367
323.68539
353.51266
379.20987
400.8766
418.9298
433.81964
446.02937
456.03462
464.24561
470.99683
476.55684
481.1413
484.92429
488.04708
490.62489
492.75203
42.683863
42.876233
43.859523
46.802997
53.161542
64.294565
80.613842
101.58654
125.72737
150.88068
179.50681
215.87292
254.82214
290.76116
323.84246
353.67393
379.36752
401.02783
419.07368
433.95646
446.16019
456.16064
464.36786
471.11616
476.67392
481.25667
485.03838
488.16024
490.7374
492.86414
42.682909
42.874031
43.85141
46.779467
53.115989
64.227585
80.541127
101.52436
125.69194
150.87845
179.54371
215.95615
254.93506
290.89928
324.00004
353.83558
379.52547
401.1793
419.21779
434.09347
446.2912
456.28685
464.49031
471.23569
476.79119
481.37223
485.15266
488.27359
490.85012
492.97645
42.681959
42.871842
43.843338
46.75601
53.070504
64.160583
80.468349
101.46208
125.65646
150.87626
179.58089
216.03994
255.04855
291.03789
324.15797
353.99749
379.68362
401.33093
419.36202
434.23061
446.42234
456.41319
464.61288
471.35534
476.90859
481.48792
485.26707
488.38707
490.96296
493.08888
42.681013
42.869663
43.835308
46.732641
53.025105
64.093552
80.395487
101.39968
125.62089
150.8741
179.6183
216.12419
255.16252
291.17684
324.31611
354.15951
379.84182
401.48258
419.50625
434.36773
446.55346
456.53951
464.73544
471.47498
477.02598
481.6036
485.38147
488.50055
491.07579
493.20131
42.680072
42.867496
43.82731
46.709341
52.979788
64.026502
80.322529
101.33714
125.58521
150.8719
179.65588
216.20882
255.27687
291.31606
324.47438
354.32158
380.00001
401.63418
419.65043
434.5048
446.68452
456.66577
464.85795
471.59457
477.14333
481.71924
485.49583
488.61399
491.18859
493.31371
42.679136
42.86534
43.819343
46.686119
52.934528
63.959421
80.249465
101.27445
125.54938
150.86967
179.69361
216.29377
255.39155
291.45548
324.63272
354.48361
380.15812
401.78567
419.79447
434.64173
446.81546
456.79192
464.98034
471.71405
477.26057
481.83477
485.61009
488.72732
491.30129
493.426
42.678204
42.863195
43.811417
46.662969
52.889372
63.892322
80.176285
101.21158
125.5134
150.86736
179.73145
216.37902
255.50651
291.59507
324.7911
354.64561
380.31615
401.93705
419.9384
434.77855
446.94629
456.91796
465.10263
471.83343
477.37772
481.95021
485.72426
488.84057
491.41389
493.5382
42.677277
42.861061
43.803533
46.639889
52.844267
63.825199
80.102987
101.14853
125.47724
150.86499
179.76938
216.46453
255.6217
291.7348
324.94949
354.80752
380.47403
402.08826
420.08215
434.91519
447.07694
457.04382
465.22475
471.95264
477.49468
482.06547
485.83825
488.95364
491.52633
493.65023
42.676354
42.858938
43.795688
46.616885
52.799248
63.758047
80.029559
101.0853
125.44091
150.86252
179.80739
216.55026
255.7371
291.87463
325.10784
354.96931
380.63177
402.2393
420.22571
435.05165
447.20741
457.16951
465.3467
472.07169
477.61149
482.18058
485.95209
489.06656
491.63861
493.76211
42.675436
42.856826
43.787874
46.593946
52.7543
63.690876
79.956008
101.02186
125.4044
150.85996
179.84546
216.6362
255.85268
292.01452
325.26612
355.13095
380.78929
402.3901
420.36904
435.18786
447.33764
457.29497
465.46842
472.19051
477.72809
482.29548
486.06572
489.17926
491.75068
493.87378
42.674522
42.854726
43.78009
46.571087
52.709413
63.623678
79.882319
100.95823
125.3677
150.85729
179.88359
216.72233
255.96842
292.15445
325.42433
355.29243
380.94662
402.5407
420.51216
435.32388
447.46769
457.42025
465.58997
472.30916
477.84451
482.4102
486.17918
489.29181
491.86259
493.98528
42.673612
42.852636
43.77234
46.548296
52.664623
63.556461
79.808504
100.8944
125.33081
150.85452
179.92175
216.80861
256.08428
292.29442
325.58243
355.45371
381.10372
402.69104
420.65501
435.45964
447.59748
457.54528
465.71127
472.42757
477.96069
482.5247
486.2924
489.40412
491.97427
494.09656
42.672707
42.850558
43.764634
46.525577
52.619885
63.489223
79.734545
100.83036
125.29373
150.85162
179.95995
216.89505
256.20028
292.43441
325.74043
355.61482
381.2606
402.84115
420.79763
435.59517
447.72705
457.6701
465.83237
472.54578
478.07668
482.63899
486.40543
489.51623
492.08575
494.20764
42.671807
42.848491
43.756968
46.50293
52.575238
63.421957
79.660457
100.76611
125.25644
150.84861
179.99817
216.98164
256.3164
292.57443
325.89833
355.77574
381.41725
402.991
420.93998
435.73043
447.85636
457.79466
465.95321
472.66374
478.19241
482.75303
486.51822
489.6281
492.19699
494.31848
42.670911
42.846439
43.749331
46.480348
52.530659
63.354675
79.586221
100.70165
125.21894
150.84548
180.03642
217.06837
256.43265
292.71447
326.05612
355.93649
381.57369
403.14063
421.08211
435.86548
447.98547
457.91902
466.07385
472.7815
478.30796
482.86689
486.63082
489.73979
492.30804
494.42914
42.670019
42.844398
43.741724
46.457843
52.486147
63.287372
79.511854
100.63698
125.18125
150.84223
180.07469
217.15523
256.54899
292.8545
326.21378
356.09701
381.72987
403.28997
421.22395
436.00024
448.11429
458.0431
466.19423
472.899
478.42324
482.98049
486.74316
489.85122
492.41884
494.53954
42.669132
42.842369
43.734146
46.435397
52.44173
63.220049
79.437338
100.57209
125.14334
150.83886
180.11298
217.2422
256.66541
292.99452
326.3713
356.25732
381.8858
403.43906
421.36553
436.13475
448.24286
458.16695
466.31437
473.01627
478.5383
483.09387
486.85528
489.96243
492.52943
494.64973
42.66825
42.840351
43.726612
46.413035
52.397367
63.152707
79.362689
100.50699
125.10524
150.83536
180.15126
217.32927
256.78191
293.13452
326.52868
356.41741
382.04147
403.58786
421.50682
436.26897
448.37116
458.29052
466.43425
473.13328
478.6531
483.20699
486.96715
490.07338
492.63976
494.75966
42.667373
42.838346
43.719118
46.390736
52.353103
63.085341
79.28789
100.44166
125.06692
150.83173
180.18955
217.41644
256.89849
293.27451
326.68594
356.57731
382.19691
403.73643
421.64788
436.40297
448.49924
458.41388
466.55392
473.25008
478.7677
483.31991
487.07881
490.18414
492.74989
494.8694
42.6665
42.836356
43.711655
46.368507
52.308905
63.017965
79.212955
100.37612
125.0284
150.82797
180.22784
217.50371
257.01515
293.41449
326.84304
356.73697
382.35208
403.88471
421.78864
436.53667
448.62704
458.53696
466.67331
473.36661
478.88203
483.43256
487.19021
490.29464
492.85976
494.97888
42.665631
42.834379
43.704221
46.346353
52.264782
62.950568
79.137869
100.31036
124.98966
150.82408
180.26614
217.59106
257.13186
293.55444
327
356.89642
382.50701
404.03273
421.92914
436.67013
448.75459
458.65981
466.79248
473.48292
478.99613
483.54499
487.3014
490.40492
492.96942
495.08814
42.664766
42.832412
43.696817
46.324258
52.220753
62.883152
79.062646
100.24437
124.9507
150.82006
180.30443
217.67849
257.24863
293.69436
327.15682
357.05565
382.66168
404.18047
422.06936
436.8033
448.88186
458.78239
466.91137
473.59896
479.10998
483.65716
487.41232
490.51494
493.07882
495.19714
42.663906
42.830457
43.689448
46.302244
52.176781
62.815721
78.98727
100.17815
124.91154
150.81592
180.34272
217.766
257.36547
293.83427
327.31351
357.21469
382.81613
404.32798
422.20935
436.93625
449.00893
458.90476
467.03007
473.7148
479.22362
483.76914
487.52305
490.62477
493.18802
495.30596
42.66305
42.828514
43.682123
46.280285
52.132915
62.748275
78.911758
100.11172
124.87216
150.81164
180.38098
217.85356
257.48235
293.97414
327.47004
357.37349
382.97031
404.4752
422.34904
437.0689
449.1357
459.02684
467.14848
473.83037
479.337
483.88085
487.63351
490.73433
493.29696
495.41451
42.662198
42.826583
43.674833
46.25841
52.089116
62.680816
78.836091
100.04506
124.83258
150.80723
180.41923
217.94119
257.59927
294.11397
327.62642
357.53206
383.12423
404.62216
422.48848
437.20131
449.26223
459.14869
467.26667
473.94571
479.45015
483.99234
487.74376
490.84368
493.40569
495.52284
42.66135
42.824664
43.667574
46.236599
52.045399
62.613339
78.760287
99.978169
124.79278
150.80269
180.45746
218.02885
257.71621
294.25375
327.78262
357.6904
383.27787
404.76882
422.62761
437.33342
449.38848
459.27026
467.38458
474.06078
479.56303
484.10356
487.85374
490.95276
493.51415
495.63092
42.660506
42.822756
43.660343
46.214852
52.001776
62.545846
78.684328
99.911055
124.75276
150.79801
180.49567
218.11656
257.83319
294.3935
327.93869
357.84854
383.4313
404.91525
422.76652
437.46532
449.51452
459.39163
467.5023
474.17566
479.67573
484.21459
487.96354
491.06166
493.62244
495.73881
42.659666
42.82086
43.653143
46.193185
51.958215
62.478349
78.60823
99.843709
124.71253
150.79321
180.53386
218.2043
257.95021
294.53322
328.09462
358.00646
383.58447
405.06141
422.90514
437.59693
449.64027
459.51272
467.61973
474.29027
479.78815
484.32536
488.07307
491.17029
493.73045
495.84644
42.65883
42.818976
43.645984
46.171571
51.914766
62.410834
78.531976
99.776129
124.67208
150.78827
180.57202
218.29209
258.06726
294.67291
328.2504
358.16417
383.7374
405.20732
423.04352
437.7283
449.76579
459.63358
467.73695
474.40465
479.90036
484.43591
488.18238
491.27871
493.83825
495.95385
42.657998
42.817103
43.638868
46.150042
51.871386
62.343306
78.455583
99.708322
124.63141
150.7832
180.61014
218.37989
258.18431
294.81253
328.40601
358.32164
383.89005
405.35293
423.18159
437.85937
449.89102
459.75416
467.85388
474.51876
480.01229
484.54618
488.29142
491.38686
493.94579
496.061
42.65717
42.815243
43.631783
46.128567
51.828094
62.27577
78.379033
99.640283
124.59054
150.77799
180.64824
218.46771
258.30137
294.9521
328.56146
358.4789
384.04248
405.49832
423.31944
437.99023
450.01605
459.87454
467.97063
474.63269
480.12404
484.65628
488.40028
491.49483
494.05315
496.16798
42.656347
42.813394
43.624728
46.107169
51.784898
62.208221
78.302343
99.572006
124.54946
150.77264
180.68629
218.55553
258.41844
295.09162
328.71676
358.63594
384.19465
405.64341
423.457
438.12079
450.14078
459.99464
468.08709
474.74633
480.23551
484.7661
488.50887
491.60253
494.16023
496.27468
42.655529
42.811559
43.617702
46.08584
51.741772
62.140665
78.225496
99.5035
124.50815
150.76716
180.72429
218.64334
258.53551
295.23111
328.87193
358.79277
384.34658
405.78827
423.59432
438.25113
450.2653
460.11452
468.20335
474.85976
480.34678
484.87572
488.61726
491.71002
494.26712
496.38118
42.654714
42.809738
43.610708
46.064568
51.698759
62.073097
78.148508
99.434756
124.46662
150.76154
180.76225
218.73116
258.6526
295.37055
329.02694
358.94939
384.49826
405.93286
423.73136
438.38118
450.38954
460.23412
468.31932
474.97292
480.45777
484.98506
488.72538
491.81725
494.37373
496.48741
42.653904
42.807928
43.60376
46.04338
51.655818
62.00552
78.071362
99.365771
124.42488
150.7558
180.80017
218.81898
258.76968
295.50995
329.18182
359.10583
384.64974
406.07724
423.86819
438.51104
450.51359
460.35355
468.43513
475.08592
480.5686
485.09424
488.83333
491.92432
494.48019
496.59348
42.653097
42.80613
43.596851
46.022239
51.612975
61.937941
77.994073
99.296554
124.38292
150.74992
180.83803
218.90678
258.88675
295.64929
329.33654
359.26204
384.80096
406.22133
424.00474
438.64061
450.63735
460.47268
468.55065
475.19863
480.67915
485.20315
488.941
492.03111
494.58637
496.69928
42.652294
42.804345
43.589971
46.001187
51.570228
61.870348
77.916628
99.227095
124.34075
150.74389
180.87584
218.99455
259.0038
295.78857
329.49112
359.41804
384.95195
406.36519
424.14105
438.76995
450.76089
460.59161
468.66596
475.31113
480.7895
485.31185
489.04849
492.1377
494.69235
496.80489
42.651495
42.802572
43.583122
45.980189
51.527559
61.80275
77.839036
99.157395
124.29837
150.73773
180.91357
219.08227
259.12084
295.92781
329.64555
359.57384
385.10269
406.50878
424.27708
438.89902
450.88416
460.71027
468.78101
475.42338
480.89958
485.42029
489.1557
492.24404
494.79808
496.91024
42.6507
42.800814
43.576306
45.959261
51.484989
61.735154
77.76129
99.087458
124.25577
150.73143
180.95125
219.16997
259.23786
296.06701
329.79985
359.72946
385.25325
406.65219
424.41293
439.02791
451.00726
460.82876
468.89589
475.53546
481.00951
485.52858
489.26277
492.35022
494.90366
497.01543
42.649908
42.79907
43.56953
45.938422
51.442458
61.667544
77.683393
99.017272
124.21294
150.725
180.98886
219.25763
259.35486
296.20615
329.95401
359.88488
385.40357
406.79532
424.5485
439.15652
451.13008
460.94698
469.0105
475.64727
481.11916
485.6366
489.36956
492.45613
495.00896
497.12036
42.64912
42.797338
43.562808
45.917642
51.399992
61.599931
77.605344
98.946841
124.16989
150.71843
181.0264
219.34523
259.47184
296.34524
330.10803
360.04011
385.55367
406.93824
424.68385
439.28491
451.2527
461.06499
469.12491
475.75888
481.22862
485.74442
489.47616
492.56185
495.11408
497.2251
42.648335
42.795619
43.55613
45.896961
51.357583
61.532324
77.527138
98.876168
124.12663
150.71172
181.06385
219.43277
259.58877
296.48427
330.26191
360.19513
385.70352
407.08089
424.81892
439.41303
451.37504
461.18273
469.23905
475.87023
481.33782
485.85198
489.58251
492.66731
495.21894
497.32958
42.647554
42.793912
43.549488
45.876341
51.315221
61.464705
77.448783
98.805243
124.08316
150.70486
181.10122
219.52023
259.70568
296.62326
330.41567
360.34998
385.8532
407.22335
424.95382
439.54098
451.49721
461.30031
469.35304
475.98143
481.44687
485.95939
489.6887
492.77263
495.32365
497.43391
42.646777
42.792218
43.542884
45.855808
51.272934
61.39709
77.370268
98.734072
124.03947
150.69786
181.1385
219.60762
259.82252
296.76218
330.56928
360.50464
386.00264
407.36556
425.08846
439.66866
451.61913
461.41764
469.46677
476.09237
481.55566
486.06655
489.79464
492.87769
495.42811
497.538
42.646003
42.790536
43.536318
45.835356
51.230688
61.329481
77.291604
98.662654
123.99556
150.69072
181.17569
219.69494
259.93934
296.90107
330.72278
360.65913
386.15189
407.50757
425.22289
439.79615
451.74085
461.53477
469.58032
476.20312
481.66426
486.17352
489.9004
492.98257
495.53238
497.6419
42.645233
42.788867
43.529791
45.814968
51.188514
61.261866
77.21278
98.590978
123.95142
150.68344
181.2128
219.78219
260.05613
297.03991
330.87616
360.81343
386.30093
407.64935
425.35707
439.92338
451.86232
461.65166
469.69361
476.31363
481.77262
486.28026
490.00592
493.08721
495.63642
497.74556
42.644467
42.78721
43.523319
45.794683
51.146401
61.19426
77.133805
98.519055
123.90707
150.67601
181.2498
219.86934
260.17288
297.17872
331.02943
360.9676
386.44981
407.79096
425.49109
440.05046
451.98363
461.76839
469.80676
476.42399
481.88084
486.38684
490.11128
493.1917
495.74031
497.84908
42.643703
42.785566
43.516889
45.774455
51.10434
61.126662
77.054668
98.446879
123.8625
150.66845
181.28671
219.95639
260.28957
297.31748
331.18258
361.12158
386.59848
407.93233
425.62486
440.17728
452.1047
461.88487
469.91965
476.5341
481.98881
486.49318
490.21641
493.29594
495.84396
497.95235
42.642944
42.783935
43.510497
45.754323
51.062354
61.059061
76.975381
98.374446
123.81772
150.66073
181.3235
220.04334
260.40621
297.45619
331.33561
361.27541
386.74696
408.07352
425.75844
440.30392
452.22558
462.00118
470.03237
476.64404
482.0966
486.59934
490.32136
493.40002
495.94744
498.05546
42.642187
42.782317
43.504142
45.734267
51.020417
60.991476
76.895932
98.301762
123.77272
150.65287
181.36018
220.13018
260.52279
297.59485
331.48854
361.42907
386.89525
408.21448
425.89179
440.43032
452.34623
462.11725
470.14486
476.75374
482.20416
486.70527
490.42608
493.50386
496.05069
498.15833
42.641435
42.780711
43.497825
45.71428
50.978555
60.923901
76.81633
98.228818
123.72749
150.64487
181.39675
220.21693
260.63935
297.73351
331.64139
361.58262
387.0434
408.3553
426.02499
440.55658
452.46674
462.23318
470.25721
476.86331
482.31159
486.81107
490.53066
493.60757
496.1538
498.26107
42.640685
42.779119
43.491546
45.694397
50.936758
60.856327
76.736567
98.155616
123.68205
150.63672
181.43322
220.30357
260.75588
297.87214
331.79415
361.73602
387.19137
408.49592
426.15798
440.68262
452.58703
462.34889
470.36934
476.97266
482.41879
486.91665
490.63502
493.71106
496.25669
498.36359
42.639939
42.777539
43.485318
45.67457
50.89502
60.788775
76.656647
98.082159
123.63638
150.62843
181.46955
220.39008
260.87233
298.01074
331.94682
361.8893
387.3392
408.63638
426.29081
440.8085
452.70715
462.46444
470.48131
477.08184
482.52583
487.02206
490.73923
493.81439
496.35942
498.46595
42.639196
42.775973
43.479137
45.654846
50.853359
60.721235
76.576571
98.008437
123.59051
150.61999
181.50576
220.47647
260.98872
298.1493
332.0994
362.04243
387.48685
408.77663
426.42342
440.93416
452.82706
462.57977
470.59306
477.19081
482.63266
487.12726
490.84322
493.91751
496.46194
498.5681
42.638457
42.774422
43.472994
45.635195
50.811752
60.653701
76.496333
97.934458
123.54442
150.61139
181.54183
220.56273
261.10508
298.28786
332.25191
362.19545
387.63437
408.91676
426.5559
441.05969
452.94683
462.69498
470.70468
477.29965
482.73936
487.23233
490.94708
494.02049
496.56433
498.67013
42.63772
42.772884
43.466887
45.615618
50.770225
60.586194
76.415938
97.860215
123.4981
150.60264
181.57777
220.64888
261.22139
298.4264
332.40436
362.34835
387.78173
409.05669
426.68818
441.18501
453.0664
462.80996
470.81609
477.40828
482.84584
487.33719
491.05072
494.12327
496.6665
498.77193
42.636987
42.771359
43.460819
45.596144
50.728769
60.518703
76.335379
97.785705
123.45156
150.59375
181.61358
220.73489
261.33767
298.56493
332.55674
362.50116
387.92898
409.19651
426.82032
441.31019
453.18582
462.92481
470.92735
477.51676
482.95218
487.4419
491.15422
494.22589
496.76853
498.8736
42.636258
42.769847
43.454787
45.576729
50.687377
60.451222
76.254665
97.710934
123.4048
150.5847
181.64924
220.82076
261.45388
298.70346
332.70906
362.65386
388.07609
409.33615
426.95227
441.43518
453.30505
463.03946
471.03842
477.62504
483.05832
487.54641
491.25752
494.32832
496.87037
498.97506
42.635531
42.768348
43.448798
45.557419
50.646065
60.383772
76.173784
97.635895
123.35782
150.57549
181.68475
220.90649
261.57005
298.84198
332.86135
362.80648
388.2231
409.47568
427.08411
441.56005
453.42417
463.15401
471.14937
477.73321
483.16435
487.6508
491.3607
494.43063
496.97208
499.07641
42.634807
42.766862
43.442863
45.538185
50.604814
60.316345
76.092748
97.56059
123.31063
150.56612
181.72011
220.99207
261.68617
298.9805
333.01357
362.95899
388.36996
409.61504
427.21577
441.68473
453.54309
463.26834
471.26012
477.84118
483.27017
487.755
491.46368
494.53274
497.0736
499.17756
42.634087
42.76539
43.436966
45.519023
50.563648
60.248929
76.011548
97.485018
123.26322
150.5566
181.75531
221.07751
261.80226
299.11902
333.16575
363.11142
388.51672
409.75428
427.3473
441.80929
453.66188
463.38255
471.37075
477.94901
483.37586
487.85906
491.56653
494.63472
497.17498
499.27857
42.633371
42.763935
43.431107
45.49997
50.522557
60.181551
75.930185
97.40917
123.21557
150.54691
181.79035
221.16281
261.9183
299.25756
333.3179
363.26377
388.66337
409.89339
427.47867
441.93367
453.78049
463.49658
471.48119
478.05666
483.48136
487.96293
491.66919
494.73651
497.27618
499.3794
42.632658
42.762492
43.425284
45.480978
50.481537
60.1142
75.848662
97.333055
123.1677
150.53706
181.82522
221.24796
262.0343
299.39613
333.47004
363.41609
388.80996
410.03242
427.60997
442.05798
453.89903
463.61054
471.59155
478.16423
483.58678
488.06672
491.77177
494.83821
497.37728
499.48014
42.631948
42.761063
43.419499
45.462088
50.440599
60.046867
75.766973
97.256668
123.11962
150.52705
181.85992
221.33295
262.15026
299.53471
333.62216
363.56832
388.95643
410.17131
427.7411
442.18212
454.01739
463.7243
471.70172
478.27161
483.69201
488.17032
491.87415
494.93972
497.4782
499.5807
42.631241
42.759646
43.413751
45.44328
50.399732
59.979573
75.685125
97.180006
123.07132
150.51686
181.89443
221.41777
262.26619
299.67331
333.77425
363.72049
389.10282
410.3101
427.87212
442.30614
454.13563
463.83795
471.81177
478.37888
483.79712
488.2738
491.97642
495.04111
497.579
499.68113
42.630537
42.758244
43.408049
45.424542
50.358955
59.912314
75.603108
97.103074
123.02279
150.50651
181.92876
221.50245
262.38209
299.81193
333.92632
363.8726
389.2491
410.44875
428.00299
442.42999
454.2537
463.95143
471.92165
478.48596
483.90206
488.3771
492.0785
495.14232
497.67961
499.78138
42.629835
42.756854
43.402396
45.40592
50.318255
59.845078
75.520933
97.025861
122.97404
150.49599
181.9629
221.58698
262.49796
299.95061
334.07841
364.0247
389.39535
410.58736
428.13381
442.5538
454.37172
464.06485
472.03147
478.59298
484.00692
488.48032
492.18051
495.24346
497.78016
499.88156
42.629137
42.755477
43.396781
45.387361
50.277634
59.777882
75.438593
96.948375
122.92505
150.48529
181.99685
221.67134
262.6138
300.08932
334.2305
364.17675
389.54152
410.72586
428.2645
442.67745
454.48958
464.1781
472.14112
478.69982
484.11161
488.58338
492.28235
495.34442
497.88053
499.98156
42.628441
42.754114
43.391201
45.368899
50.237099
59.710732
75.356087
96.87061
122.87585
150.47442
182.0306
221.75553
262.72962
300.22809
334.38261
364.32877
389.68764
410.86429
428.3951
442.80102
454.60735
464.29126
472.25067
478.80657
484.21621
488.68633
492.38409
495.44529
497.9808
500.08147
42.627748
42.752764
43.385659
45.350529
50.196643
59.643609
75.273419
96.792567
122.82643
150.46336
182.06414
221.83955
262.84543
300.3669
334.53471
364.48074
389.83367
411.0026
428.52557
442.92445
454.72497
464.40428
472.36007
478.91317
484.32064
488.78913
492.48567
495.54599
498.08091
500.18122
42.627058
42.751427
43.380153
45.332223
50.156281
59.576526
75.190583
96.714249
122.77678
150.45213
182.09747
221.92342
262.96123
300.50577
334.68684
364.63272
389.9797
411.14089
428.65601
443.04784
454.84256
464.51725
472.46943
479.01972
484.42503
488.89188
492.58719
495.64664
498.18096
500.28091
42.626371
42.750104
43.374683
45.31404
50.116001
59.5095
75.107585
96.635646
122.7269
150.44071
182.13059
222.00714
263.07701
300.6447
334.839
364.78468
390.12565
411.27909
428.78634
443.1711
454.96
464.63007
472.57863
479.12611
484.52925
488.99446
492.68856
495.74713
498.28086
500.38045
42.625686
42.748793
43.369257
45.295925
50.075807
59.442508
75.024421
96.556767
122.6768
150.42912
182.16349
222.09068
263.1928
300.78372
334.99121
364.93664
390.27159
411.41724
428.9166
443.2943
455.07738
464.74282
472.68776
479.23242
484.6334
489.09696
492.78984
495.84754
498.38067
500.47989
42.625005
42.747496
43.363881
45.277897
50.035702
59.375555
74.941095
96.477607
122.62646
150.41733
182.19616
222.17405
263.30858
300.9228
335.14344
365.08857
390.41746
411.5553
429.04676
443.41737
455.19462
464.85543
472.79674
479.33859
484.7374
489.19932
492.89097
495.94779
498.48033
500.5792
42.624325
42.746211
43.358539
45.259974
49.995686
59.30867
74.857604
96.398165
122.57591
150.40536
182.2286
222.25726
263.42439
301.06196
335.29571
365.24053
390.56334
411.69335
429.17689
443.54042
455.31184
464.96802
472.9057
479.44473
484.84137
489.30164
492.99207
496.04801
498.57996
500.67846
42.623648
42.74494
43.353234
45.242119
49.955768
59.241826
74.773945
96.318443
122.52513
150.39321
182.2608
222.3403
263.5402
301.2012
335.44802
365.39247
390.70917
411.83132
429.30693
443.66336
455.42894
465.08047
473.01452
479.55073
484.9452
489.40382
493.09303
496.14809
498.67944
500.77758
42.622974
42.743681
43.347964
45.224372
49.915935
59.175024
74.690124
96.238436
122.47412
150.38086
182.29276
222.42318
263.65602
301.34052
335.6004
365.54444
390.85499
411.96927
429.43694
443.78626
455.54598
465.19288
473.12329
479.65667
485.04896
489.50593
493.19391
496.2481
498.77886
500.87663
42.622303
42.742436
43.34273
45.206712
49.876196
59.108294
74.606135
96.158149
122.42286
150.36832
182.32448
222.5059
263.77187
301.47994
335.75281
365.69641
391.00078
412.10716
429.56685
443.90905
455.66293
465.30517
473.23194
479.76249
485.1526
489.60792
493.29468
496.34798
498.87815
500.97556
42.621633
42.741203
43.337531
45.189124
49.83655
59.041617
74.521985
96.07758
122.37138
150.35559
182.35597
222.58846
263.88775
301.61945
335.9053
365.84841
391.14659
412.24505
429.69677
444.03185
455.77986
465.41745
473.34058
479.86829
485.25623
489.70989
493.39542
496.44785
498.97741
501.07447
42.620967
42.739984
43.332367
45.171656
49.796998
58.974987
74.43767
95.99673
122.31967
150.34266
182.38721
222.67085
264.00366
301.75905
336.05781
366.00042
391.29237
412.38288
429.82661
444.15455
455.8967
465.52962
473.4491
479.97398
485.35973
489.81174
493.49604
496.54759
499.07656
501.17325
42.620303
42.738778
43.327257
45.154261
49.757551
58.908428
74.353187
95.915598
122.26773
150.32954
182.4182
222.75309
264.1196
301.89873
336.2104
366.15247
391.43817
412.52072
429.95643
444.27723
456.0135
465.64177
473.55759
480.07963
485.4632
489.91355
493.59662
496.64728
499.17566
501.27199
42.619642
42.737585
43.322181
45.136953
49.71819
58.841936
74.268541
95.834182
122.21553
150.31623
182.44897
222.83517
264.23556
302.0385
336.36306
366.30453
391.58395
412.65851
430.08619
444.39983
456.13022
465.75382
473.66598
480.18518
485.56656
490.01525
493.69709
496.74688
499.27466
501.37063
42.618984
42.736404
43.31714
45.119755
49.678931
58.775499
74.183729
95.752489
122.16309
150.30272
182.4795
222.9171
264.35156
302.17838
336.51579
366.45666
391.72978
412.79633
430.21598
444.52245
456.24696
465.86588
473.77438
480.29073
485.66992
490.11695
493.79756
496.84646
499.37364
501.46925
42.618328
42.735236
43.312133
45.102626
49.639769
58.70913
74.098753
95.670512
122.11041
150.289
182.50981
222.99888
264.46756
302.31833
336.66856
366.60879
391.87559
412.93412
430.3457
444.645
456.36361
465.97785
473.88268
480.39619
485.77319
490.21856
493.89793
496.94595
499.47253
501.56778
42.617674
42.734079
43.307159
45.085603
49.600702
58.642847
74.01361
95.588258
122.05747
150.27508
182.53992
223.08051
264.58357
302.45836
336.82141
366.76099
392.02144
413.07192
430.47544
444.76755
456.48026
466.08981
473.99098
480.50163
485.87643
490.32013
493.99827
497.04541
499.5714
501.66628
42.617023
42.732935
43.302219
45.068673
49.561746
58.576625
73.9283
95.505724
122.00429
150.26095
182.56983
223.16199
264.69957
302.59847
336.97434
366.91323
392.16731
413.20972
430.60514
444.89006
456.59686
466.20172
474.09921
480.607
485.97961
490.42164
494.09855
497.14479
499.67019
501.76471
42.616373
42.731803
43.297312
45.051816
49.522877
58.510468
73.842828
95.422915
121.95084
150.24662
182.59953
223.24334
264.81558
302.73871
337.12738
367.06556
392.31325
413.34757
430.73489
445.01261
456.7135
466.31366
474.20746
480.7124
486.0828
490.52316
494.19883
497.24419
499.76899
501.86315
42.615726
42.730682
43.292443
45.035074
49.484117
58.444412
73.757187