/*--------------------------------*- C++ -*----------------------------------*\
| =========                 |                                                 |
| \\      /  F ield         | OpenFOAM: The Open Source CFD Toolbox           |
|  \\    /   O peration     | Version:  v2012                                 |
|   \\  /    A nd           | Website:  www.openfoam.com                      |
|    \\/     M anipulation  |                                                 |
\*---------------------------------------------------------------------------*/
FoamFile
{
    version     2.0;
    format      ascii;
    class       volVectorField;
    location    "650";
    object      U;
}
// * * * * * * * * * * * * * * * * * * * * * * * * * * * * * * * * * * * * * //

dimensions      [0 1 -1 0 0 0 0];


internalField   nonuniform List<vector> 
24000
(
(28.989224 -0.0074998369 0)
(29.12999 -0.018906477 0)
(29.529106 -0.027497167 0)
(30.268732 -0.0257053 0)
(31.511992 -0.015032205 0)
(33.184352 -0.0042802468 0)
(35.06927 0.0048636023 0)
(36.938256 0.011547689 0)
(38.541502 0.015597948 0)
(39.621023 0.017346077 0)
(40.142197 0.016580148 0)
(39.840997 0.015205659 0)
(38.358948 0.013469521 0)
(35.9092 0.012611339 0)
(32.681171 0.010164458 0)
(28.909426 0.0086533052 0)
(25.001646 0.0072157944 0)
(21.226866 0.0056630685 0)
(17.741855 0.0041947967 0)
(14.638286 0.0030758056 0)
(11.942475 0.0021893786 0)
(9.6317705 0.0015067348 0)
(7.665053 0.00099952811 0)
(5.9981722 0.0006354865 0)
(4.5896012 0.0003834365 0)
(3.4020704 0.00021585937 0)
(2.4028164 0.00010965643 0)
(1.5633719 4.6696825e-05 0)
(0.85919851 1.4008182e-05 0)
(0.26927271 6.5482014e-07 0)
(28.976443 -0.0081592558 0)
(29.118008 -0.021445157 0)
(29.51929 -0.031746652 0)
(30.259436 -0.027868182 0)
(31.499351 -0.012511243 0)
(33.168593 0.0021132799 0)
(35.048242 0.014341969 0)
(36.913297 0.022742042 0)
(38.514076 0.026984181 0)
(39.592221 0.026881965 0)
(40.112509 0.024820648 0)
(39.810742 0.022477672 0)
(38.328572 0.01986302 0)
(35.87768 0.017015208 0)
(32.647579 0.013762366 0)
(28.874539 0.010660976 0)
(24.965802 0.0080499554 0)
(21.190368 0.0059261895 0)
(17.705339 0.0042576818 0)
(14.602623 0.0029852054 0)
(11.908646 0.002041985 0)
(9.60074 0.0013586506 0)
(7.6376023 0.0008755298 0)
(5.9747882 0.00054280336 0)
(4.5704628 0.00032022607 0)
(3.3871024 0.00017645432 0)
(2.3917722 8.7600356e-05 0)
(1.5559126 3.6170282e-05 0)
(0.85495611 1.0283898e-05 0)
(0.26789215 3.8370444e-07 0)
(28.96493 -0.0084711348 0)
(29.105564 -0.022309155 0)
(29.503746 -0.032746148 0)
(30.238189 -0.028042036 0)
(31.473243 -0.011734974 0)
(33.139468 0.0039365684 0)
(35.017265 0.017396334 0)
(36.88241 0.025982799 0)
(38.484882 0.029999822 0)
(39.564739 0.029201847 0)
(40.08617 0.026749212 0)
(39.785491 0.023293345 0)
(38.304563 0.01976627 0)
(35.854143 0.015941454 0)
(32.623993 0.011934619 0)
(28.85235 0.0083490684 0)
(24.946552 0.0055522935 0)
(21.175076 0.0035033869 0)
(17.694552 0.0021039263 0)
(14.596267 0.0012077475 0)
(11.905984 0.0006671253 0)
(9.6007475 0.00035486008 0)
(7.6392679 0.00018192725 0)
(5.9772767 8.9120391e-05 0)
(4.5731617 4.1112392e-05 0)
(3.389607 1.7732702e-05 0)
(2.3938428 6.8481169e-06 0)
(1.5574275 2.1758625e-06 0)
(0.85587002 3.67321e-07 0)
(0.26820528 1.215335e-07 0)
(28.952811 -0.0086941984 0)
(29.092867 -0.022908331 0)
(29.489471 -0.033386095 0)
(30.220479 -0.028157587 0)
(31.451464 -0.011238277 0)
(33.114317 0.0052087935 0)
(34.98991 0.019530512 0)
(36.854264 0.028239961 0)
(38.457056 0.032286161 0)
(39.537387 0.031387638 0)
(40.058982 0.028717296 0)
(39.758248 0.025051361 0)
(38.277386 0.021223016 0)
(35.826604 0.017183699 0)
(32.596064 0.01303825 0)
(28.825898 0.0093843767 0)
(24.922892 0.0065526895 0)
(21.15473 0.0044548836 0)
(17.677598 0.002966287 0)
(14.582449 0.0019425238 0)
(11.894838 0.0012538772 0)
(9.5918192 0.00079529466 0)
(7.6321839 0.00049294414 0)
(5.9717372 0.00029615973 0)
(4.5689218 0.00017032722 0)
(3.3864609 9.1856939e-05 0)
(2.391616 4.4805447e-05 0)
(1.5559728 1.8276361e-05 0)
(0.85506503 5.1372674e-06 0)
(0.2679501 2.7838541e-07 0)
(28.940561 -0.0088325597 0)
(29.080057 -0.023222739 0)
(29.475227 -0.033657571 0)
(30.202966 -0.028147422 0)
(31.429894 -0.010964087 0)
(33.089285 0.0059164192 0)
(34.962779 0.020768412 0)
(36.826262 0.029537309 0)
(38.429233 0.033647172 0)
(39.509915 0.032721166 0)
(40.031648 0.030002183 0)
(39.730746 0.026208036 0)
(38.249757 0.022193825 0)
(35.798527 0.01797569 0)
(32.56756 0.013672064 0)
(28.798812 0.0098760593 0)
(24.898538 0.0069160451 0)
(21.133682 0.0047074829 0)
(17.660043 0.0031307549 0)
(14.568243 0.0020430861 0)
(11.883556 0.0013123539 0)
(9.5829721 0.00082797891 0)
(7.6253259 0.00051075902 0)
(5.9664943 0.00030570834 0)
(4.5649894 0.00017539767 0)
(3.383594 9.4654927e-05 0)
(2.3896182 4.6275735e-05 0)
(1.5546865 1.8899141e-05 0)
(0.8543636 5.287642e-06 0)
(0.26773172 2.9315491e-07 0)
(28.928205 -0.0089164082 0)
(29.067226 -0.023392768 0)
(29.461184 -0.033783521 0)
(30.185885 -0.028128771 0)
(31.408837 -0.010812826 0)
(33.064749 0.0063362766 0)
(34.936178 0.021540628 0)
(36.798723 0.030360376 0)
(38.401759 0.034546309 0)
(39.482677 0.033639717 0)
(40.004435 0.030912564 0)
(39.703182 0.02705891 0)
(38.221824 0.022925932 0)
(35.769942 0.018589022 0)
(32.53836 0.014174239 0)
(28.770874 0.010275688 0)
(24.87324 0.0072245196 0)
(21.11166 0.0049389677 0)
(17.641538 0.003299853 0)
(14.553146 0.0021634466 0)
(11.871463 0.001395635 0)
(9.5734095 0.00088381308 0)
(7.6178565 0.00054674343 0)
(5.9607463 0.00032782268 0)
(4.5606548 0.00018818202 0)
(3.3804202 0.00010129288 0)
(2.3873988 4.9315568e-05 0)
(1.5532534 2.0083014e-05 0)
(0.85358023 5.6401777e-06 0)
(0.26748715 3.1637492e-07 0)
(28.915801 -0.008964595 0)
(29.054399 -0.023478812 0)
(29.447254 -0.033836127 0)
(30.169012 -0.028119011 0)
(31.388018 -0.010743315 0)
(33.040442 0.0065733699 0)
(34.909831 0.022020117 0)
(36.771416 0.030882455 0)
(38.374469 0.035138758 0)
(39.455564 0.034259916 0)
(39.977289 0.031534064 0)
(39.675567 0.027646851 0)
(38.193669 0.023431537 0)
(35.740989 0.019012022 0)
(32.508662 0.014518718 0)
(28.742334 0.01054812 0)
(24.847284 0.0074333227 0)
(21.08897 0.0050945423 0)
(17.622389 0.0034128228 0)
(14.537452 0.0022435639 0)
(11.858834 0.0014511963 0)
(9.5633766 0.00092143161 0)
(7.6099841 0.00057155839 0)
(5.9546617 0.00034366866 0)
(4.5560478 0.00019788543 0)
(3.3770348 0.00010702202 0)
(2.3850243 5.2377511e-05 0)
(1.5517166 2.1403963e-05 0)
(0.85273868 6.0224902e-06 0)
(0.26722411 3.3647566e-07 0)
(28.903375 -0.0089910954 0)
(29.041591 -0.023520858 0)
(29.433412 -0.033858965 0)
(30.152286 -0.028128903 0)
(31.367366 -0.01073107 0)
(33.016297 0.006695354 0)
(34.883667 0.022317489 0)
(36.744281 0.031216339 0)
(38.347323 0.035533566 0)
(39.428561 0.034680667 0)
(39.950211 0.031959916 0)
(39.647933 0.028050523 0)
(38.165371 0.023777303 0)
(35.71179 0.01930052 0)
(32.478626 0.014752207 0)
(28.713387 0.010731564 0)
(24.820886 0.007572647 0)
(21.065836 0.0051971387 0)
(17.602818 0.0034862077 0)
(14.521375 0.0022946587 0)
(11.845868 0.0014857499 0)
(9.5530556 0.00094409562 0)
(7.601872 0.00058582434 0)
(5.9483831 0.00035221866 0)
(4.5512885 0.0002026794 0)
(3.3735343 0.00010933307 0)
(2.3825673 5.3332715e-05 0)
(1.5501255 2.1750565e-05 0)
(0.85186723 6.1323606e-06 0)
(0.26695168 3.4792044e-07 0)
(28.890943 -0.0090049714 0)
(29.028802 -0.023541393 0)
(29.419634 -0.033872591 0)
(30.13566 -0.028159273 0)
(31.346828 -0.010760468 0)
(32.992256 0.006739715 0)
(34.857623 0.022494736 0)
(36.717263 0.03142672 0)
(38.320273 0.035798343 0)
(39.401631 0.034968711 0)
(39.923177 0.032254007 0)
(39.620279 0.028330546 0)
(38.136964 0.024015891 0)
(35.682411 0.019499299 0)
(32.448348 0.014913907 0)
(28.684153 0.010860085 0)
(24.79418 0.0076718739 0)
(21.042392 0.0052718437 0)
(17.582951 0.0035413025 0)
(14.505026 0.002334447 0)
(11.83266 0.0015139457 0)
(9.5425244 0.00096360055 0)
(7.5935815 0.00059906006 0)
(5.941957 0.00036095921 0)
(4.546411 0.00020825695 0)
(3.3699429 0.00011287117 0)
(2.3800443 5.5367353e-05 0)
(1.5484906 2.2674706e-05 0)
(0.85097124 6.3782378e-06 0)
(0.26667148 3.4728105e-07 0)
(28.878513 -0.0090120226 0)
(29.016033 -0.023553441 0)
(29.405905 -0.03388696 0)
(30.119109 -0.028208162 0)
(31.326372 -0.010820638 0)
(32.968289 0.0067303546 0)
(34.831663 0.022589239 0)
(36.690323 0.031552873 0)
(38.293288 0.035976537 0)
(39.374751 0.035169063 0)
(39.896173 0.032460505 0)
(39.592608 0.028527109 0)
(38.108477 0.024180301 0)
(35.652901 0.019633583 0)
(32.417899 0.015021883 0)
(28.654718 0.010945035 0)
(24.767257 0.0077364536 0)
(21.01873 0.0053194111 0)
(17.562877 0.0035752729 0)
(14.488486 0.0023580181 0)
(11.819281 0.0015296809 0)
(9.5318451 0.00097368141 0)
(7.5851662 0.00060512392 0)
(5.9354285 0.00036431119 0)
(4.5414523 0.00020987883 0)
(3.3662895 0.00011333647 0)
(2.3774764 5.5337537e-05 0)
(1.5468259 2.25863e-05 0)
(0.85005879 6.3645929e-06 0)
(0.26638609 3.5272547e-07 0)
(28.866087 -0.0090157601 0)
(29.00328 -0.023563952 0)
(29.392214 -0.033906478 0)
(30.102614 -0.028272947 0)
(31.305978 -0.010903848 0)
(32.944375 0.0066835435 0)
(34.805762 0.022628485 0)
(36.663438 0.031622143 0)
(38.266346 0.036092817 0)
(39.347905 0.035307239 0)
(39.869187 0.032606007 0)
(39.564921 0.028665384 0)
(38.079928 0.024293784 0)
(35.623295 0.019725168 0)
(32.387329 0.015095097 0)
(28.625142 0.011003122 0)
(24.740185 0.0077813863 0)
(20.994919 0.0053534293 0)
(17.54266 0.0036004982 0)
(14.471815 0.0023763572 0)
(11.805785 0.0015427416 0)
(9.5210631 0.00098278385 0)
(7.5766638 0.00061137022 0)
(5.9288284 0.00036851353 0)
(4.5364363 0.00021263018 0)
(3.3625921 0.00011517791 0)
(2.3748767 5.6442766e-05 0)
(1.5451402 2.3091989e-05 0)
(0.84913455 6.5101854e-06 0)
(0.26609695 3.602083e-07 0)
(28.853666 -0.0090180753 0)
(28.990539 -0.023576065 0)
(29.378551 -0.033932665 0)
(30.086166 -0.028351165 0)
(31.285635 -0.011004525 0)
(32.920504 0.0066096171 0)
(34.779906 0.022628497 0)
(36.636594 0.031652274 0)
(38.239438 0.036164981 0)
(39.321084 0.035399225 0)
(39.842216 0.032706994 0)
(39.537221 0.028760518 0)
(38.051331 0.024369052 0)
(35.593618 0.019784711 0)
(32.356672 0.015141482 0)
(28.59547 0.01103949 0)
(24.71301 0.0078091367 0)
(20.971006 0.0053741199 0)
(17.522343 0.0036154476 0)
(14.455049 0.0023868068 0)
(11.792201 0.0015497154 0)
(9.5102043 0.00098722259 0)
(7.5680952 0.0006139641 0)
(5.922173 0.00036986899 0)
(4.5313759 0.00021320484 0)
(3.3588605 0.00011519428 0)
(2.372252 5.6273483e-05 0)
(1.5434378 2.2975627e-05 0)
(0.84820103 6.4866008e-06 0)
(0.26580488 3.6384883e-07 0)
(28.84125 -0.0090199215 0)
(28.977808 -0.023590896 0)
(29.364912 -0.033965731 0)
(30.069756 -0.028441393 0)
(31.265335 -0.011119314 0)
(32.896667 0.0065153121 0)
(34.754086 0.022598867 0)
(36.609781 0.031654751 0)
(38.212556 0.036208586 0)
(39.294284 0.035460588 0)
(39.815256 0.032777644 0)
(39.509511 0.028826037 0)
(38.022697 0.024418762 0)
(35.563891 0.019824254 0)
(32.325957 0.015172348 0)
(28.565736 0.011064631 0)
(24.685771 0.007829401 0)
(20.94703 0.0053903504 0)
(17.501967 0.0036283459 0)
(14.438228 0.0023968332 0)
(11.778568 0.0015573945 0)
(9.4993012 0.00099293597 0)
(7.5594884 0.00061818116 0)
(5.9154858 0.00037291546 0)
(4.5262898 0.00021534789 0)
(3.355109 0.00011676529 0)
(2.3696128 5.72871e-05 0)
(1.5417257 2.3464729e-05 0)
(0.8472621 6.6113312e-06 0)
(0.26551109 3.6017431e-07 0)
(28.828838 -0.0090218283 0)
(28.965085 -0.023608912 0)
(29.351295 -0.03400506 0)
(30.053382 -0.028541193 0)
(31.245074 -0.011245042 0)
(32.872861 0.006405546 0)
(34.728295 0.022548194 0)
(36.582992 0.031636136 0)
(38.185692 0.036229223 0)
(39.267497 0.035499234 0)
(39.788305 0.032825404 0)
(39.481792 0.028869721 0)
(37.994033 0.024448419 0)
(35.534123 0.019845674 0)
(32.295199 0.015187735 0)
(28.535958 0.011076531 0)
(24.658488 0.0078383293 0)
(20.92301 0.0053968789 0)
(17.481549 0.0036329318 0)
(14.421366 0.0023999118 0)
(11.764896 0.0015592275 0)
(9.4883626 0.00099387671 0)
(7.5508508 0.00061845049 0)
(5.9087726 0.00037276073 0)
(4.5211828 0.00021497611 0)
(3.3513414 0.0001162169 0)
(2.3669618 5.6805702e-05 0)
(1.5400059 2.3205019e-05 0)
(0.84631883 6.5480407e-06 0)
(0.26521593 3.6285427e-07 0)
(28.816429 -0.0090241798 0)
(28.952369 -0.023630475 0)
(29.337698 -0.034049706 0)
(30.03704 -0.028648371 0)
(31.224848 -0.011379061 0)
(32.849081 0.0062846486 0)
(34.702528 0.022482444 0)
(36.556224 0.031601999 0)
(38.158846 0.036232094 0)
(39.240724 0.035520933 0)
(39.761361 0.03285685 0)
(39.454064 0.028899118 0)
(37.965346 0.024465332 0)
(35.504327 0.019855261 0)
(32.264413 0.015193811 0)
(28.506154 0.011081578 0)
(24.631181 0.0078427935 0)
(20.898968 0.005400919 0)
(17.461109 0.0036365803 0)
(14.404483 0.0024031449 0)
(11.751204 0.0015619634 0)
(9.4774055 0.00099609598 0)
(7.5421967 0.00062023014 0)
(5.9020454 0.00037415501 0)
(4.5160642 0.00021603666 0)
(3.3475646 0.00011707551 0)
(2.3643041 5.7393605e-05 0)
(1.5382815 2.3491884e-05 0)
(0.845373 6.6296297e-06 0)
(0.26491995 3.6648885e-07 0)
(28.804021 -0.0090271579 0)
(28.939656 -0.023655582 0)
(29.324118 -0.034098835 0)
(30.020728 -0.028761082 0)
(31.204654 -0.011519512 0)
(32.825327 0.0061549261 0)
(34.676782 0.022403911 0)
(36.529473 0.031556012 0)
(38.132012 0.036224205 0)
(39.213961 0.035531983 0)
(39.734423 0.032877248 0)
(39.426331 0.028918213 0)
(37.936641 0.024473382 0)
(35.47451 0.019856912 0)
(32.233611 0.01519275 0)
(28.476337 0.01108041 0)
(24.603863 0.0078418956 0)
(20.874915 0.0054004026 0)
(17.440658 0.0036363239 0)
(14.387586 0.002403027 0)
(11.737496 0.0015617877 0)
(9.4664325 0.00099585133 0)
(7.5335275 0.00061988188 0)
(5.8953046 0.0003737546 0)
(4.5109341 0.00021563464 0)
(3.3437787 0.00011663648 0)
(2.3616396 5.7047275e-05 0)
(1.5365524 2.3313999e-05 0)
(0.84442456 6.5878157e-06 0)
(0.26462314 3.6909131e-07 0)
(28.791614 -0.0090307175 0)
(28.926946 -0.023683607 0)
(29.310552 -0.034151566 0)
(30.004443 -0.028878204 0)
(31.184491 -0.011664984 0)
(32.801596 0.0060179689 0)
(34.651055 0.022315232 0)
(36.502736 0.031500196 0)
(38.105188 0.036207333 0)
(39.187205 0.035535619 0)
(39.707489 0.032890017 0)
(39.398591 0.028930091 0)
(37.907918 0.024476036 0)
(35.444676 0.019855328 0)
(32.202798 0.015189782 0)
(28.446517 0.011078828 0)
(24.576545 0.0078417753 0)
(20.850865 0.0054015624 0)
(17.420209 0.0036383694 0)
(14.37069 0.002405425 0)
(11.723788 0.001564206 0)
(9.4554582 0.00099799665 0)
(7.5248563 0.00062173595 0)
(5.8885616 0.00037527754 0)
(4.5058018 0.00021682984 0)
(3.3399909 0.00011763213 0)
(2.3589736 5.7745346e-05 0)
(1.5348223 2.3665752e-05 0)
(0.84347552 6.6710683e-06 0)
(0.26432613 3.6232623e-07 0)
(28.779206 -0.0090346431 0)
(28.914238 -0.02371369 0)
(29.297 -0.03420727 0)
(29.988184 -0.028999707 0)
(31.164358 -0.011814785 0)
(32.777887 0.0058761351 0)
(34.625345 0.02221999 0)
(36.47601 0.031436898 0)
(38.078372 0.036181529 0)
(39.160456 0.0355319 0)
(39.680559 0.032895575 0)
(39.370843 0.028934147 0)
(37.879179 0.024471537 0)
(35.414826 0.019848262 0)
(32.171976 0.015181493 0)
(28.416695 0.011072038 0)
(24.549227 0.0078364247 0)
(20.826815 0.0053975963 0)
(17.39976 0.0036354391 0)
(14.353792 0.0024032282 0)
(11.710075 0.0015624249 0)
(9.4444776 0.00099652477 0)
(7.5161787 0.00062044699 0)
(5.8818128 0.00037415428 0)
(4.5006647 0.00021588374 0)
(3.3361992 0.00011677064 0)
(2.3563047 5.7110152e-05 0)
(1.5330904 2.334239e-05 0)
(0.84252543 6.5908908e-06 0)
(0.2640288 3.6457773e-07 0)
(28.766796 -0.0090387637 0)
(28.90153 -0.023745371 0)
(29.283462 -0.034265302 0)
(29.971951 -0.029124589 0)
(31.144253 -0.011968214 0)
(32.7542 0.0057298511 0)
(34.599651 0.022118683 0)
(36.449295 0.031369407 0)
(38.051563 0.036151063 0)
(39.133712 0.035522235 0)
(39.653631 0.032896288 0)
(39.343089 0.028933752 0)
(37.850425 0.024462553 0)
(35.384963 0.019837336 0)
(32.141149 0.015170637 0)
(28.386874 0.011063752 0)
(24.521915 0.0078307172 0)
(20.802773 0.005394125 0)
(17.379318 0.0036336724 0)
(14.336898 0.0024026116 0)
(11.696364 0.0015624964 0)
(9.4334981 0.00099694919 0)
(7.5075014 0.00062105651 0)
(5.8750638 0.00037482166 0)
(4.4955271 0.00021651653 0)
(3.3324071 0.0001173999 0)
(2.3536354 5.7590594e-05 0)
(1.531358 2.3586212e-05 0)
(0.8415751 6.6588593e-06 0)
(0.26373138 3.6698216e-07 0)
(28.754385 -0.00904305 0)
(28.888822 -0.023778731 0)
(29.269939 -0.034325123 0)
(29.955744 -0.02925186 0)
(31.124177 -0.012124315 0)
(32.730534 0.0055803931 0)
(34.573972 0.022012547 0)
(36.42259 0.031299362 0)
(38.024762 0.036117895 0)
(39.106974 0.035508188 0)
(39.626707 0.032893008 0)
(39.315329 0.02892978 0)
(37.82166 0.024449141 0)
(35.355092 0.019820853 0)
(32.110323 0.015154642 0)
(28.357063 0.011050663 0)
(24.494615 0.0078206376 0)
(20.778744 0.0053866869 0)
(17.358886 0.0036283208 0)
(14.32001 0.0023988202 0)
(11.682656 0.0015597368 0)
(9.4225182 0.00099492729 0)
(7.498822 0.0006195055 0)
(5.8683119 0.00037361921 0)
(4.4903866 0.00021559034 0)
(3.3286123 0.0001166113 0)
(2.3509639 5.7031595e-05 0)
(1.5296242 2.3308976e-05 0)
(0.84062388 6.5903685e-06 0)
(0.26343367 3.6862741e-07 0)
(28.741971 -0.0090475427 0)
(28.876115 -0.023813865 0)
(29.256428 -0.034386366 0)
(29.939562 -0.029380386 0)
(31.104129 -0.012282141 0)
(32.70689 0.0054289788 0)
(34.548307 0.021904166 0)
(36.395894 0.031226289 0)
(37.997968 0.036079931 0)
(39.080243 0.035490183 0)
(39.599788 0.032885836 0)
(39.287567 0.028922682 0)
(37.792887 0.024433689 0)
(35.325218 0.019803167 0)
(32.079505 0.015138406 0)
(28.32727 0.011038445 0)
(24.46734 0.007812329 0)
(20.754742 0.0053817118 0)
(17.338481 0.0036259116 0)
(14.303146 0.0023981057 0)
(11.668967 0.0015600483 0)
(9.4115533 0.00099571446 0)
(7.4901541 0.0006205248 0)
(5.8615688 0.00037467053 0)
(4.4852525 0.00021654909 0)
(3.324822 0.00011751848 0)
(2.3482956 5.7712163e-05 0)
(1.5278923 2.3660715e-05 0)
(0.83967375 6.6745613e-06 0)
(0.26313629 3.6332687e-07 0)
(28.729554 -0.0090521676 0)
(28.863406 -0.023850406 0)
(29.242929 -0.034448639 0)
(29.923405 -0.029509866 0)
(31.084108 -0.0124414 0)
(32.683267 0.0052755012 0)
(34.522658 0.021792726 0)
(36.369209 0.031150348 0)
(37.971181 0.036038768 0)
(39.053518 0.035469142 0)
(39.572873 0.032874854 0)
(39.259802 0.02891172 0)
(37.764106 0.024415139 0)
(35.29534 0.019782871 0)
(32.048695 0.01511903 0)
(28.297494 0.011022736 0)
(24.440086 0.007800049 0)
(20.730762 0.0053725341 0)
(17.318096 0.0036191879 0)
(14.286297 0.0023932442 0)
(11.655288 0.0015564311 0)
(9.4005959 0.00099300093 0)
(7.4814913 0.00061841065 0)
(5.854829 0.00037300631 0)
(4.4801207 0.00021525827 0)
(3.3210333 0.00011643652 0)
(2.3456283 5.6946032e-05 0)
(1.5261611 2.3276459e-05 0)
(0.83872397 6.5777476e-06 0)
(0.26283905 3.6467482e-07 0)
(28.717133 -0.0090567185 0)
(28.850695 -0.023887688 0)
(29.22944 -0.034511847 0)
(29.90727 -0.029641022 0)
(31.064114 -0.012602239 0)
(32.659664 0.0051203793 0)
(34.497022 0.021677773 0)
(36.342532 0.031071883 0)
(37.9444 0.035997024 0)
(39.026797 0.035447759 0)
(39.545961 0.032862731 0)
(39.23203 0.028899723 0)
(37.735315 0.024396763 0)
(35.265457 0.019764329 0)
(32.017892 0.015101678 0)
(28.267735 0.011009304 0)
(24.412854 0.0077903685 0)
(20.706805 0.0053661551 0)
(17.297732 0.00361537 0)
(14.269466 0.0023912216 0)
(11.641625 0.0015555475 0)
(9.3896499 0.000992786 0)
(7.4728373 0.00061860586 0)
(5.8480959 0.00037341579 0)
(4.4749938 0.00021574201 0)
(3.3172482 0.00011698964 0)
(2.3429634 5.7391521e-05 0)
(1.5244314 2.3505703e-05 0)
(0.83777504 6.6392037e-06 0)
(0.26254206 3.6572795e-07 0)
(28.704709 -0.0090609893 0)
(28.837982 -0.023925316 0)
(29.215963 -0.034575744 0)
(29.891159 -0.029773641 0)
(31.044147 -0.012764777 0)
(32.636081 0.0049635979 0)
(34.471398 0.021561128 0)
(36.315861 0.030991054 0)
(37.917624 0.035952397 0)
(39.000079 0.035425631 0)
(39.51905 0.032850015 0)
(39.204253 0.028887772 0)
(37.706513 0.024377706 0)
(35.235569 0.019744236 0)
(31.987093 0.015082645 0)
(28.23799 0.010993862 0)
(24.38564 0.0077785181 0)
(20.682867 0.0053574695 0)
(17.277384 0.0036091737 0)
(14.252647 0.0023868601 0)
(11.627968 0.0015524161 0)
(9.3787071 0.00099052666 0)
(7.4641842 0.00061691557 0)
(5.8413625 0.0003721378 0)
(4.469866 0.00021478259 0)
(3.313462 0.00011620255 0)
(2.3402976 5.6844448e-05 0)
(1.522701 2.3235785e-05 0)
(0.83682568 6.5723259e-06 0)
(0.26224492 3.670504e-07 0)
(28.69228 -0.0090649488 0)
(28.825268 -0.023963503 0)
(29.202499 -0.034640207 0)
(29.875073 -0.029907371 0)
(31.024207 -0.0129286 0)
(32.612519 0.0048061159 0)
(34.445787 0.021442793 0)
(36.289199 0.030908438 0)
(37.890852 0.035906118 0)
(38.973365 0.035403512 0)
(39.492141 0.03283823 0)
(39.176472 0.028877351 0)
(37.677703 0.02435936 0)
(35.205678 0.019724318 0)
(31.956306 0.015064716 0)
(28.208267 0.01098038 0)
(24.358454 0.0077693273 0)
(20.658959 0.0053518586 0)
(17.257066 0.0036063033 0)
(14.235853 0.0023857965 0)
(11.614332 0.0015524797 0)
(9.3677811 0.00099113402 0)
(7.4555444 0.0006178079 0)
(5.8346393 0.00037309968 0)
(4.464746 0.00021567999 0)
(3.3096815 0.00011707024 0)
(2.3376358 5.7503156e-05 0)
(1.5209732 2.3578508e-05 0)
(0.83587772 6.6519124e-06 0)
(0.26194822 3.6060123e-07 0)
(28.679847 -0.0090687018 0)
(28.812552 -0.024002622 0)
(29.189047 -0.034705066 0)
(29.85901 -0.030041206 0)
(31.004293 -0.013093234 0)
(32.588977 0.0046476213 0)
(34.420189 0.021322129 0)
(36.262543 0.030826076 0)
(37.864082 0.035860552 0)
(38.946654 0.035379869 0)
(39.465235 0.032825027 0)
(39.148687 0.028864453 0)
(37.648886 0.024337828 0)
(35.175786 0.019701022 0)
(31.925528 0.015042898 0)
(28.178563 0.010962673 0)
(24.331291 0.0077554472 0)
(20.635076 0.0053413766 0)
(17.23677 0.0035985293 0)
(14.219077 0.0023801195 0)
(11.600709 0.0015482679 0)
(9.3568652 0.0009880099 0)
(7.446912 0.00061542168 0)
(5.8279216 0.00037126136 0)
(4.4596299 0.00021427988 0)
(3.3059038 0.00011592245 0)
(2.3349759 5.6701362e-05 0)
(1.5192467 2.3179251e-05 0)
(0.83493048 6.5520247e-06 0)
(0.26165175 3.6219685e-07 0)
(28.66741 -0.0090723241 0)
(28.799834 -0.024042641 0)
(29.175607 -0.034770087 0)
(29.84297 -0.030174908 0)
(30.984406 -0.013258166 0)
(32.565454 0.004489003 0)
(34.394603 0.021201079 0)
(36.235892 0.030743912 0)
(37.837317 0.035812701 0)
(38.919947 0.03535273 0)
(39.43833 0.032808579 0)
(39.120897 0.028848428 0)
(37.620061 0.024314682 0)
(35.145891 0.019677784 0)
(31.894761 0.01502169 0)
(28.148881 0.010946229 0)
(24.304157 0.0077434334 0)
(20.611222 0.0053332266 0)
(17.216503 0.0035933845 0)
(14.202326 0.0023771323 0)
(11.587108 0.0015467114 0)
(9.3459661 0.00098735014 0)
(7.4382928 0.00061533719 0)
(5.8212142 0.00037150746 0)
(4.4545217 0.00021467318 0)
(3.3021319 0.00011643472 0)
(2.3323201 5.7133242e-05 0)
(1.5175228 2.3404161e-05 0)
(0.83398464 6.6111716e-06 0)
(0.26135572 3.6265654e-07 0)
(28.654969 -0.0090757042 0)
(28.787114 -0.024083078 0)
(29.162176 -0.034835325 0)
(29.826953 -0.030309166 0)
(30.964545 -0.013423554 0)
(32.541952 0.0043304107 0)
(34.369029 0.021079486 0)
(36.209249 0.030660991 0)
(37.810558 0.035762914 0)
(38.893244 0.035324019 0)
(39.411429 0.032790103 0)
(39.093102 0.028830744 0)
(37.591228 0.024290875 0)
(35.115995 0.019654422 0)
(31.864004 0.014999759 0)
(28.119219 0.010928458 0)
(24.277046 0.0077297338 0)
(20.587393 0.0053231156 0)
(17.196257 0.0035861153 0)
(14.185592 0.0023719757 0)
(11.573518 0.0015429905 0)
(9.3350744 0.00098466221 0)
(7.4296782 0.0006133396 0)
(5.8145093 0.00037001354 0)
(4.4494148 0.00021356325 0)
(3.2983606 0.00011553419 0)
(2.3296644 5.6511381e-05 0)
(1.5157989 2.3099026e-05 0)
(0.83303878 6.5357382e-06 0)
(0.26105966 3.6407416e-07 0)
(28.642523 -0.0090786186 0)
(28.774391 -0.024123416 0)
(29.148756 -0.034900673 0)
(29.810959 -0.030444261 0)
(30.94471 -0.013590106 0)
(32.518469 0.0041705672 0)
(34.343467 0.020955493 0)
(36.182614 0.030577143 0)
(37.783802 0.035714275 0)
(38.866544 0.035296793 0)
(39.384529 0.032772898 0)
(39.065304 0.028815556 0)
(37.562389 0.024269469 0)
(35.086098 0.019632786 0)
(31.83326 0.014980264 0)
(28.089581 0.01091365 0)
(24.249966 0.0077194895 0)
(20.563597 0.0053167468 0)
(17.176043 0.0035827441 0)
(14.168885 0.0023705901 0)
(11.559951 0.0015428365 0)
(9.3242016 0.00098513068 0)
(7.4210787 0.00061414766 0)
(5.8078164 0.00037093625 0)
(4.444317 0.00021445154 0)
(3.294596 0.00011641048 0)
(2.3270136 5.7183862e-05 0)
(1.514078 2.3449863e-05 0)
(0.83209458 6.6179255e-06 0)
(0.26076413 3.58294e-07 0)
(28.630073 -0.0090809619 0)
(28.761666 -0.02416369 0)
(29.135349 -0.034966226 0)
(29.794988 -0.030580469 0)
(30.924902 -0.013757599 0)
(32.495007 0.0040106548 0)
(34.317916 0.02083078 0)
(36.155983 0.030492252 0)
(37.757051 0.035664003 0)
(38.839848 0.035269286 0)
(39.357633 0.032755236 0)
(39.037502 0.028800066 0)
(37.533543 0.024246294 0)
(35.056201 0.019607761 0)
(31.802529 0.014957117 0)
(28.059965 0.010894913 0)
(24.222912 0.0077048657 0)
(20.539828 0.0053057749 0)
(17.155853 0.0035746914 0)
(14.152198 0.0023647708 0)
(11.546399 0.0015385632 0)
(9.31334 0.00098198059 0)
(7.4124875 0.00061175403 0)
(5.8011295 0.00036909882 0)
(4.4392237 0.00021305801 0)
(3.2908347 0.00011527143 0)
(2.324365 5.6388374e-05 0)
(1.5123587 2.305392e-05 0)
(0.83115123 6.5195832e-06 0)
(0.26046887 3.602055e-07 0)
(28.617618 -0.0090828522 0)
(28.748939 -0.024204346 0)
(29.121954 -0.03503182 0)
(29.779041 -0.030716807 0)
(30.90512 -0.013925773 0)
(32.471565 0.003850543 0)
(34.292378 0.020705265 0)
(36.12936 0.030405823 0)
(37.730303 0.035612104 0)
(38.813155 0.035242422 0)
(39.330738 0.032738369 0)
(39.009697 0.028784973 0)
(37.504692 0.024223714 0)
(35.026304 0.019584427 0)
(31.771811 0.014936019 0)
(28.030375 0.01087873 0)
(24.195889 0.0076931453 0)
(20.516091 0.0052978888 0)
(17.135694 0.0035697661 0)
(14.135537 0.0023619778 0)
(11.532868 0.0015371797 0)
(9.3024951 0.00098145517 0)
(7.4039094 0.00061176618 0)
(5.7944528 0.00036940758 0)
(4.434138 0.00021349131 0)
(3.287079 0.0001158041 0)
(2.3217203 5.6829462e-05 0)
(1.5106419 2.3282963e-05 0)
(0.83020926 6.5779004e-06 0)
(0.26017405 3.5967252e-07 0)
(28.605159 -0.0090844851 0)
(28.736211 -0.024245627 0)
(29.108571 -0.035097222 0)
(29.763117 -0.03085282 0)
(30.885363 -0.01409423 0)
(32.448142 0.0036901888 0)
(34.26685 0.02057761 0)
(36.102741 0.030319228 0)
(37.703557 0.035561362 0)
(38.786463 0.035216219 0)
(39.303843 0.032722111 0)
(38.981886 0.028769409 0)
(37.475831 0.024200889 0)
(34.996404 0.019561714 0)
(31.741103 0.014914719 0)
(28.000803 0.010861577 0)
(24.168889 0.007679941 0)
(20.492378 0.0052881183 0)
(17.115555 0.0035626771 0)
(14.118892 0.0023569193 0)
(11.519348 0.0015335345 0)
(9.2916567 0.00097884192 0)
(7.395335 0.00060984478 0)
(5.7877779 0.00036798258 0)
(4.4290531 0.00021244231 0)
(3.2833235 0.00011496613 0)
(2.3190755 5.6254196e-05 0)
(1.5089249 2.3000248e-05 0)
(0.82926715 6.5087448e-06 0)
(0.25987917 3.6140984e-07 0)
(28.592696 -0.0090859146 0)
(28.723481 -0.024287254 0)
(29.095198 -0.035162353 0)
(29.747216 -0.030988913 0)
(30.865633 -0.014262771 0)
(32.424739 0.0035305348 0)
(34.241333 0.020450059 0)
(36.076126 0.030234086 0)
(37.676812 0.035509736 0)
(38.759774 0.035187578 0)
(39.27695 0.032704287 0)
(38.95407 0.028752981 0)
(37.446964 0.024178698 0)
(34.966504 0.019540767 0)
(31.710408 0.014895759 0)
(27.971256 0.010847353 0)
(24.14192 0.007670307 0)
(20.468699 0.0052822884 0)
(17.09545 0.0035597259 0)
(14.102276 0.0023558415 0)
(11.505853 0.0015336187 0)
(9.2808394 0.00097950861 0)
(7.3867776 0.00061082367 0)
(5.7811165 0.00036904948 0)
(4.4239786 0.00021344739 0)
(3.2795757 0.0001159373 0)
(2.3164362 5.6995128e-05 0)
(1.5072114 2.3387698e-05 0)
(0.82832698 6.597504e-06 0)
(0.25958489 3.5419594e-07 0)
(28.580228 -0.009087013 0)
(28.710749 -0.024328594 0)
(29.081836 -0.035227036 0)
(29.731336 -0.031125584 0)
(30.845928 -0.014432022 0)
(32.401355 0.0033708429 0)
(34.215827 0.020322372 0)
(36.049517 0.030149261 0)
(37.650072 0.035456446 0)
(38.733088 0.035156663 0)
(39.25006 0.032684224 0)
(38.926252 0.028735046 0)
(37.418091 0.02415404 0)
(34.936604 0.019515424 0)
(31.679725 0.014872195 0)
(27.941732 0.010828176 0)
(24.114977 0.00765527 0)
(20.445045 0.0052709385 0)
(17.075367 0.0035513483 0)
(14.085679 0.0023497126 0)
(11.492373 0.0015290418 0)
(9.2700331 0.00097608307 0)
(7.3782286 0.00060818686 0)
(5.7744615 0.00036699958 0)
(4.4189089 0.00021187471 0)
(3.2758314 0.00011464481 0)
(2.3137994 5.6087844e-05 0)
(1.5054997 2.2934712e-05 0)
(0.82738776 6.4859449e-06 0)
(0.25929092 3.5670673e-07 0)
(28.567757 -0.0090876656 0)
(28.698015 -0.024369417 0)
(29.068486 -0.035291354 0)
(29.71548 -0.031263465 0)
(30.826248 -0.01460209 0)
(32.37799 0.0032111811 0)
(34.190331 0.020192834 0)
(36.022914 0.030064125 0)
(37.623335 0.035404257 0)
(38.706405 0.035126649 0)
(39.223172 0.032664744 0)
(38.89843 0.028718358 0)
(37.389214 0.024130214 0)
(34.906706 0.019490361 0)
(31.649058 0.014849711 0)
(27.912233 0.010810856 0)
(24.088066 0.0076426351 0)
(20.421425 0.0052624041 0)
(17.055316 0.0035460593 0)
(14.069109 0.0023467188 0)
(11.478915 0.0015275491 0)
(9.259245 0.00097551138 0)
(7.3696942 0.00060820278 0)
(5.7678179 0.0003673541 0)
(4.413848 0.00021237322 0)
(3.2720937 0.00011526809 0)
(2.3111672 5.6608895e-05 0)
(1.5037909 2.3204655e-05 0)
(0.82645017 6.5541403e-06 0)
(0.25899745 3.5601147e-07 0)
(28.555282 -0.0090879273 0)
(28.68528 -0.024410093 0)
(29.055149 -0.035355025 0)
(29.699646 -0.031401624 0)
(30.806594 -0.014773033 0)
(32.354646 0.0030514318 0)
(34.164846 0.020062755 0)
(35.996315 0.029978503 0)
(37.596601 0.035351039 0)
(38.679725 0.035096396 0)
(39.196286 0.032644637 0)
(38.870605 0.028700591 0)
(37.36033 0.024105344 0)
(34.876808 0.01946485 0)
(31.618404 0.014826163 0)
(27.882758 0.010791832 0)
(24.061182 0.0076278358 0)
(20.397832 0.0052513283 0)
(17.035289 0.0035379462 0)
(14.052557 0.0023408826 0)
(11.465468 0.0015233053 0)
(9.2484639 0.00097241001 0)
(7.3611636 0.00060586429 0)
(5.7611762 0.00036556938 0)
(4.4087877 0.0002110194 0)
(3.2683559 0.00011414653 0)
(2.3085347 5.582181e-05 0)
(1.5020818 2.2816155e-05 0)
(0.82551238 6.4590685e-06 0)
(0.25870391 3.5801374e-07 0)
(28.542802 -0.0090879805 0)
(28.672544 -0.024451068 0)
(29.041825 -0.035417975 0)
(29.683836 -0.031539433 0)
(30.786966 -0.01494419 0)