/*--------------------------------*- C++ -*----------------------------------*\
| =========                 |                                                 |
| \\      /  F ield         | OpenFOAM: The Open Source CFD Toolbox           |
|  \\    /   O peration     | Version:  v2012                                 |
|   \\  /    A nd           | Website:  www.openfoam.com                      |
|    \\/     M anipulation  |                                                 |
\*---------------------------------------------------------------------------*/
FoamFile
{
    version     2.0;
    format      ascii;
    class       volScalarField;
    location    "600";
    object      alphat;
}
// * * * * * * * * * * * * * * * * * * * * * * * * * * * * * * * * * * * * * //

dimensions      [1 -1 -1 0 0 0 0];


internalField   nonuniform List<scalar> 
24000
(
0.00076981848
0.00023723392
0.00013721431
0.00013888629
0.00014794968
0.00012849968
0.00010478661
8.0863977e-05
6.2344162e-05
5.3500382e-05
2.9513281e-05
1.4483953e-05
9.719653e-06
6.862135e-06
3.9386919e-06
2.3122905e-06
1.3302323e-06
6.6873316e-07
2.6757503e-07
9.2967454e-08
2.890552e-08
8.2122726e-09
2.141073e-09
5.0531276e-10
1.0450512e-10
1.7916992e-11
2.374001e-12
3.0006392e-13
1.453693e-13
1.5672243e-13
0.00077128273
0.00023409303
0.00013642653
0.00013820815
0.00014756469
0.00012835519
0.00010476657
8.0888136e-05
6.2403527e-05
5.3444129e-05
2.9490384e-05
1.4467609e-05
9.7020701e-06
6.8356714e-06
3.9241251e-06
2.3037746e-06
1.3249829e-06
6.6587028e-07
2.6632338e-07
9.2509307e-08
2.8759458e-08
8.1704506e-09
2.1301944e-09
5.0276492e-10
1.0398355e-10
1.7828636e-11
2.3625135e-12
2.9869944e-13
1.4473534e-13
1.560087e-13
0.00077278088
0.00023691257
0.00013784749
0.00013823931
0.00014729576
0.00012804641
0.00010448045
8.0615671e-05
6.2144195e-05
5.3367737e-05
2.9441341e-05
1.4440312e-05
9.6802338e-06
6.8118819e-06
3.910237e-06
2.2956755e-06
1.3200066e-06
6.6265004e-07
2.6488817e-07
9.1980086e-08
2.8591233e-08
8.1226766e-09
2.1178817e-09
4.9990668e-10
1.0340413e-10
1.7732041e-11
2.3506718e-12
2.9790126e-13
1.4481266e-13
1.5604373e-13
0.00077429172
0.00023808875
0.00013833452
0.00013798902
0.00014706152
0.0001278736
0.00010432276
8.0463588e-05
6.199686e-05
5.3281116e-05
2.938584e-05
1.4410483e-05
9.658118e-06
6.7861802e-06
3.8959234e-06
2.2876467e-06
1.3152529e-06
6.5985971e-07
2.6369239e-07
9.1548163e-08
2.8454692e-08
8.0837741e-09
2.1077841e-09
4.9754294e-10
1.0292063e-10
1.7650568e-11
2.340449e-12
2.9704618e-13
1.4468174e-13
1.5586221e-13
0.00077580639
0.00023916726
0.00013869317
0.00013771925
0.0001468496
0.00012770249
0.00010416158
8.0315966e-05
6.1854652e-05
5.3188456e-05
2.9325071e-05
1.4378045e-05
9.6351679e-06
6.7608068e-06
3.881522e-06
2.279409e-06
1.3102866e-06
6.5685127e-07
2.6238538e-07
9.1071918e-08
2.8303477e-08
8.040622e-09
2.0965813e-09
4.9492124e-10
1.0238444e-10
1.7560134e-11
2.3290149e-12
2.960074e-13
1.4444448e-13
1.5557318e-13
0.00077732216
0.00023998011
0.00013896271
0.00013741821
0.00014664147
0.0001275385
0.00010400844
8.0177804e-05
6.1716151e-05
5.3092184e-05
2.926112e-05
1.4343989e-05
9.6117503e-06
6.7351613e-06
3.866861e-06
2.2709661e-06
1.3051812e-06
6.5374525e-07
2.6103153e-07
9.0577173e-08
2.8145992e-08
7.9955852e-09
2.0848686e-09
4.921762e-10
1.0182234e-10
1.746523e-11
2.3170102e-12
2.9492169e-13
1.4420114e-13
1.5527463e-13
0.00077883689
0.00024064821
0.00013919863
0.00013710742
0.00014643546
0.00012737724
0.00010385869
8.0043201e-05
6.1586106e-05
5.2993555e-05
2.9195026e-05
1.4308852e-05
9.5880356e-06
6.7093828e-06
3.8520483e-06
2.2623977e-06
1.2999907e-06
6.5058078e-07
2.5965115e-07
9.0072508e-08
2.7985297e-08
7.9496158e-09
2.0729094e-09
4.8937232e-10
1.012479e-10
1.7368167e-11
2.3046986e-12
2.9378116e-13
1.4392112e-13
1.5493837e-13
0.00078034946
0.00024121831
0.00013941745
0.00013679204
0.0001462302
0.00012721745
0.00010371096
7.991082e-05
6.1459527e-05
5.2893172e-05
2.9127426e-05
1.4273015e-05
9.5641463e-06
6.6835486e-06
3.837155e-06
2.2537564e-06
1.2947494e-06
6.4737871e-07
2.5825301e-07
8.9560953e-08
2.7822303e-08
7.9029633e-09
2.0607668e-09
4.8652427e-10
1.0066419e-10
1.726949e-11
2.2921701e-12
2.926131e-13
1.43628e-13
1.5458814e-13
0.00078185936
0.00024172766
0.00013962794
0.00013647557
0.00014602557
0.00012705856
0.00010356438
7.9779698e-05
6.1334723e-05
5.279168e-05
2.9058877e-05
1.4236732e-05
9.5401642e-06
6.6577102e-06
3.8222281e-06
2.2450783e-06
1.2894828e-06
6.4415905e-07
2.5684701e-07
8.9046469e-08
2.765835e-08
7.8560267e-09
2.0485474e-09
4.8365749e-10
1.0007647e-10
1.7170097e-11
2.2795378e-12
2.9142644e-13
1.4332256e-13
1.5422529e-13
0.00078336645
0.00024219912
0.00013983415
0.00013615947
0.00014582136
0.00012690024
0.00010341847
7.9649306e-05
6.1210169e-05
5.2689496e-05
2.8989711e-05
1.4200167e-05
9.5161412e-06
6.6319056e-06
3.8072992e-06
2.236386e-06
1.2842055e-06
6.4093183e-07
2.5543766e-07
8.8530733e-08
2.7493975e-08
7.8089604e-09
2.0362918e-09
4.8078162e-10
9.9486757e-11
1.7070336e-11
2.2668497e-12
2.9022872e-13
1.4300937e-13
1.5385461e-13
0.00078487087
0.00024264741
0.00014003844
0.00013584446
0.00014561743
0.00012674234
0.00010327299
7.9519359e-05
6.1085809e-05
5.2586834e-05
2.892012e-05
1.4163429e-05
9.4921125e-06
6.606159e-06
3.7923891e-06
2.2276952e-06
1.2789281e-06
6.3770494e-07
2.5402879e-07
8.801524e-08
2.7329679e-08
7.7619133e-09
2.0240398e-09
4.7790613e-10
9.8897014e-11
1.6970547e-11
2.2541503e-12
2.8902509e-13
1.426906e-13
1.5347847e-13
0.00078637289
0.00024308132
0.00014024212
0.00013553084
0.0001454136
0.00012658471
0.0001031278
7.9389715e-05
6.0961604e-05
5.2483839e-05
2.8850232e-05
1.4126592e-05
9.4681012e-06
6.5804862e-06
3.7775119e-06
2.2190159e-06
1.2736572e-06
6.3448305e-07
2.5262253e-07
8.7500794e-08
2.7165723e-08
7.7149607e-09
2.011811e-09
4.7503569e-10
9.8308207e-11
1.6870893e-11
2.2414617e-12
2.8781842e-13
1.4236771e-13
1.5309843e-13
0.00078787289
0.00024350549
0.00014044584
0.00013521877
0.00014520976
0.00012642733
0.00010298282
7.9260287e-05
6.0837531e-05
5.2376659e-05
2.878014e-05
1.4089706e-05
9.4441235e-06
6.5548991e-06
3.7626776e-06
2.2103555e-06
1.2683977e-06
6.3126971e-07
2.5122058e-07
8.6988064e-08
2.7002333e-08
7.6681701e-09
1.9996236e-09
4.7217466e-10
9.7721248e-11
1.6771533e-11
2.228805e-12
2.8661162e-13
1.4204223e-13
1.5271613e-13
0.00078937129
0.00024392182
0.00014064992
0.00013490841
0.00014500584
0.00012627015
0.00010283803
7.9131024e-05
6.0713575e-05
5.2249157e-05
2.8709909e-05
1.4052807e-05
9.4201895e-06
6.5294046e-06
3.7478924e-06
2.2017184e-06
1.2631526e-06
6.2806688e-07
2.498238e-07
8.6477352e-08
2.6839601e-08
7.6215675e-09
1.9874841e-09
4.6932455e-10
9.7136451e-11
1.667252e-11
2.2161877e-12
2.854058e-13
1.4171482e-13
1.5233226e-13
0.00079086856
0.00024433122
0.00014085446
0.00013459978
0.00014480177
0.00012611315
0.00010269341
7.9001916e-05
6.0589739e-05
5.2121978e-05
2.8639586e-05
1.4015921e-05
9.3963069e-06
6.5040073e-06
3.7331612e-06
2.1931085e-06
1.2579245e-06
6.2487648e-07
2.4843316e-07
8.5969055e-08
2.6677664e-08
7.5751941e-09
1.9754037e-09
4.6648809e-10
9.6554385e-11
1.6573954e-11
2.203623e-12
2.8420257e-13
1.4138621e-13
1.519476e-13
0.00079236517
0.00024473463
0.00014105947
0.00013429286
0.0001445975
0.00012595634
0.00010254896
7.8872938e-05
6.0466021e-05
5.1995079e-05
2.8569206e-05
1.3979067e-05
9.372482e-06
6.4787112e-06
3.7184867e-06
2.1845279e-06
1.2527147e-06
6.2169943e-07
2.4704904e-07
8.5463305e-08
2.6516564e-08
7.5290606e-09
1.9633851e-09
4.6366584e-10
9.5975166e-11
1.6475853e-11
2.191113e-12
2.8300221e-13
1.4105653e-13
1.5156231e-13
0.00079386162
0.00024513304
0.00014126491
0.00013398755
0.0001443929
0.00012579966
0.00010240466
7.8744062e-05
6.0342407e-05
5.1868427e-05
2.8498796e-05
1.394226e-05
9.3487187e-06
6.4535193e-06
3.7038721e-06
2.1759789e-06
1.2475247e-06
6.1853673e-07
2.4567194e-07
8.4960313e-08
2.6356371e-08
7.4831893e-09
1.9514344e-09
4.6085934e-10
9.5399118e-11
1.6378274e-11
2.1786659e-12
2.8180596e-13
1.4072654e-13
1.5117718e-13
0.00079535842
0.00024552701
0.00014147077
0.00013368377
0.00014418788
0.00012564312
0.0001022605
7.8615286e-05
6.0218893e-05
5.1742002e-05
2.8428374e-05
1.3905508e-05
9.3250204e-06
6.4284329e-06
3.6893185e-06
2.1674623e-06
1.242355e-06
6.1538862e-07
2.4430189e-07
8.446006e-08
2.6197074e-08
7.4375747e-09
1.9395499e-09
4.5806812e-10
9.482614e-11
1.6281199e-11
2.1662792e-12
2.8061368e-13
1.4039627e-13
1.5079223e-13
0.00079685608
0.0002459163
0.00014167695
0.00013338154
0.00014398241
0.00012548668
0.0001021165
7.848661e-05
6.0095481e-05
5.1615799e-05
2.8357959e-05
1.3868821e-05
9.3013898e-06
6.403454e-06
3.6748277e-06
2.1589795e-06
1.2372066e-06
6.1225598e-07
2.4293937e-07
8.3962749e-08
2.6038743e-08
7.3922394e-09
1.9277379e-09
4.5529372e-10
9.425656e-11
1.6184686e-11
2.1539608e-12
2.7942626e-13
1.4006609e-13
1.5040786e-13
0.00079835514
0.00024629993
0.00014188339
0.00013308088
0.00014377645
0.00012533038
0.00010197266
7.835804e-05
5.9972187e-05
5.148982e-05
2.8287561e-05
1.3832204e-05
9.2778277e-06
6.3785827e-06
3.6604002e-06
2.1505307e-06
1.2320798e-06
6.0913895e-07
2.4158437e-07
8.3468363e-08
2.588137e-08
7.3471795e-09
1.9159971e-09
4.5253581e-10
9.3690295e-11
1.6088721e-11
2.1417084e-12
2.7824335e-13
1.3973575e-13
1.5002382e-13
0.00079985611
0.00024667711
0.00014208997
0.00013278186
0.00014357005
0.00012517423
0.000101829
7.8229593e-05
5.984902e-05
5.1364074e-05
2.821719e-05
1.3795662e-05
9.2543357e-06
6.3538207e-06
3.6460371e-06
2.1421171e-06
1.2269751e-06
6.0603792e-07
2.4023713e-07
8.2977009e-08
2.5724994e-08
7.3024084e-09
1.9043313e-09
4.4979535e-10
9.312756e-11
1.5993342e-11
2.1295275e-12
2.7706583e-13
1.3940579e-13
1.4964067e-13
0.00080135953
0.00024704784
0.00014229659
0.00013248443
0.00014336315
0.00012501821
0.00010168551
7.8101251e-05
5.9725973e-05
5.1238547e-05
2.8146851e-05
1.3759199e-05
9.2309149e-06
6.3291679e-06
3.6317381e-06
2.1337383e-06
1.2218924e-06
6.0295251e-07
2.3889743e-07
8.2488561e-08
2.5569568e-08
7.2579103e-09
1.8927362e-09
4.4707123e-10
9.2568111e-11
1.5898507e-11
2.1174126e-12
2.758931e-13
1.3907603e-13
1.4925819e-13
0.00080286594
0.00024741276
0.00014250318
0.00013218852
0.00014315572
0.00012486233
0.00010154218
7.7973006e-05
5.9603042e-05
5.1113235e-05
2.8076552e-05
1.3722818e-05
9.2075667e-06
6.3046249e-06
3.6175042e-06
2.1253953e-06
1.2168322e-06
5.9988332e-07
2.3756557e-07
8.2003173e-08
2.5415148e-08
7.2137034e-09
1.8812166e-09
4.4436474e-10
9.2012231e-11
1.5804265e-11
2.1053701e-12
2.747259e-13
1.3874672e-13
1.4887666e-13
0.00080437588
0.00024777234
0.00014270964
0.00013189409
0.00014294768
0.00012470656
0.00010139902
7.7844868e-05
5.9480226e-05
5.0988137e-05
2.8006299e-05
1.3686523e-05
9.184292e-06
6.2801923e-06
3.6033355e-06
2.1170878e-06
1.2117943e-06
5.9683017e-07
2.3624143e-07
8.1520772e-08
2.5261705e-08
7.1697777e-09
1.8697699e-09
4.4167512e-10
9.1459753e-11
1.5710585e-11
2.0933961e-12
2.735636e-13
1.3841749e-13
1.4849573e-13
0.00080588989
0.00024812642
0.00014291589
0.00013160112
0.00014273902
0.00012455091
0.00010125603
7.7716832e-05
5.9357524e-05
5.0863247e-05
2.7936096e-05
1.3650315e-05
9.1610909e-06
6.255871e-06
3.5892331e-06
2.1088167e-06
1.2067795e-06
5.9379341e-07
2.349252e-07
8.1041453e-08
2.5109275e-08
7.1261451e-09
1.8583994e-09
4.3900326e-10
9.0910873e-11
1.5617504e-11
2.0814957e-12
2.7240712e-13
1.3808896e-13
1.4811599e-13
0.00080740852
0.00024847405
0.00014312185
0.00013130972
0.00014252976
0.00012439539
0.00010111322
7.7588901e-05
5.9234939e-05
5.0738566e-05
2.7865945e-05
1.3614195e-05
9.1379638e-06
6.2316605e-06
3.575196e-06
2.1005814e-06
1.201787e-06
5.907726e-07
2.3361658e-07
8.0565073e-08
2.4957803e-08
7.0827873e-09
1.8470999e-09
4.3634783e-10
9.036531e-11
1.5524971e-11
2.0696624e-12
2.7125572e-13
1.3776084e-13
1.4773716e-13
0.00080893234
0.00024881417
0.00014332739
0.00013101992
0.00014231993
0.00012424002
0.00010097058
7.7461088e-05
5.9112481e-05
5.0614107e-05
2.7795851e-05
1.3578167e-05
9.1149115e-06
6.2075612e-06
3.5612248e-06
2.0923827e-06
1.1968177e-06
5.877683e-07
2.323159e-07
8.0091779e-08
2.4807343e-08
7.0397226e-09
1.8358767e-09
4.3371016e-10
8.9823354e-11
1.5433037e-11
2.0579028e-12
2.701101e-13
1.3743336e-13
1.4735948e-13
0.00081046188
0.00024914652
0.00014353239
0.00013073173
0.00014210954
0.00012408482
0.00010082814
7.7333382e-05
5.8990154e-05
5.0489871e-05
2.7725816e-05
1.354223e-05
9.0919349e-06
6.1835728e-06
3.5473193e-06
2.0842202e-06
1.191871e-06
5.8478021e-07
2.3102294e-07
7.9621471e-08
2.4657858e-08
6.9969385e-09
1.824726e-09
4.3108933e-10
8.9284803e-11
1.5341667e-11
2.046212e-12
2.6896953e-13
1.3710608e-13
1.4698249e-13
0.00081199771
0.00024947156
0.00014373671
0.00013044509
0.00014189858
0.00012392976
0.00010068588
7.7205781e-05
5.8867952e-05
5.0365855e-05
2.7655842e-05
1.3506388e-05
9.0690347e-06
6.1596974e-06
3.5334804e-06
2.0760946e-06
1.1869478e-06
5.8180858e-07
2.297379e-07
7.9154234e-08
2.4509382e-08
6.954446e-09
1.8136513e-09
4.2848622e-10
8.874985e-11
1.5250895e-11
2.034595e-12
2.6783487e-13
1.3677958e-13
1.466068e-13
0.00081354038
0.00024978992
0.0001439403
0.0001301599
0.00014168698
0.00012377487
0.00010054381
7.7078294e-05
5.8745871e-05
5.0242054e-05
2.7585931e-05
1.347064e-05
9.0462116e-06
6.1359347e-06
3.5197074e-06
2.0680052e-06
1.1820472e-06
5.7885289e-07
2.2846044e-07
7.8689906e-08
2.4361853e-08
6.9122255e-09
1.8026468e-09
4.2589938e-10
8.8218182e-11
1.5160666e-11
2.0230446e-12
2.6670533e-13
1.3645358e-13
1.4623209e-13
0.00081509047
0.00025010184
0.00014414305
0.00012987622
0.0001414747
0.00012362013
0.00010040192
7.6950911e-05
5.8623913e-05
5.0118472e-05
2.7516085e-05
1.3434987e-05
9.023466e-06
6.1122819e-06
3.5060006e-06
2.0599527e-06
1.1771699e-06
5.7591368e-07
2.2719089e-07
7.8228638e-08
2.4215329e-08
6.8702955e-09
1.7917181e-09
4.2333019e-10
8.7690097e-11
1.5071036e-11
2.0115678e-12
2.6558166e-13
1.361283e-13
1.4585861e-13
0.00081664852
0.0002504067
0.0001443449
0.00012959401
0.00014126171
0.00012346554
0.00010026022
7.6823638e-05
5.8502082e-05
4.9995115e-05
2.7446306e-05
1.339943e-05
9.0007979e-06
6.0887385e-06
3.4923592e-06
2.0519365e-06
1.1723153e-06
5.7299057e-07
2.2592899e-07
7.7770313e-08
2.4069764e-08
6.8286415e-09
1.7808609e-09
4.2077759e-10
8.7165363e-11
1.4981961e-11
2.0001588e-12
2.6446298e-13
1.3580324e-13
1.4548581e-13
0.00081821508
0.00025070335
0.00014454576
0.00012931337
0.00014104799
0.0001233111
0.00010011873
7.6696483e-05
5.8380387e-05
4.9871986e-05
2.7376593e-05
1.3363969e-05
8.9782076e-06
6.0653051e-06
3.478784e-06
2.0439574e-06
1.1674842e-06
5.7008386e-07
2.2467492e-07
7.7315019e-08
2.3925193e-08
6.7872752e-09
1.7700786e-09
4.1824248e-10
8.664418e-11
1.489348e-11
1.9888231e-12
2.6335026e-13
1.3547905e-13
1.451144e-13
0.00081979071
0.00025099108
0.00014474541
0.00012903434
0.00014083366
0.00012315681
9.9977422e-05
7.6569434e-05
5.8258826e-05
4.9749087e-05
2.7306949e-05
1.3328603e-05
8.955695e-06
6.0419806e-06
3.4652741e-06
2.0360144e-06
1.1626756e-06
5.6719295e-07
2.234283e-07
7.6862577e-08
2.3781547e-08
6.7461743e-09
1.7593649e-09
4.1572325e-10
8.6126194e-11
1.4805529e-11
1.9775522e-12
2.6224263e-13
1.3515543e-13
1.4474401e-13
0.00082137594
0.00025127011
0.00014494383
0.00012875675
0.00014061835
0.00012300273
9.9836339e-05
7.6442504e-05
5.8137396e-05
4.9626422e-05
2.7237373e-05
1.3293334e-05
8.9332607e-06
6.0187659e-06
3.4518301e-06
2.0281082e-06
1.1578903e-06
5.6431847e-07
2.2218952e-07
7.641317e-08
2.3638896e-08
6.7053612e-09
1.748726e-09
4.1322155e-10
8.5611766e-11
1.4718174e-11
1.9663548e-12
2.6114095e-13
1.3483261e-13
1.4437491e-13
0.00082297131
0.00025154112
0.00014514074
0.00012848081
0.00014037353
0.00012284869
9.9695412e-05
7.6315691e-05
5.8016102e-05
4.9503992e-05
2.7167868e-05
1.3258163e-05
8.9109041e-06
5.9956593e-06
3.4384511e-06
2.020238e-06
1.1531276e-06
5.6145993e-07
2.2095829e-07
7.5966662e-08
2.3497188e-08
6.6648193e-09
1.7381573e-09
4.1073615e-10
8.5100631e-11
1.4631367e-11
1.9552244e-12
2.6004414e-13
1.3450993e-13
1.4400641e-13
0.00082457735
0.00025180469
0.00014533612
0.00012820641
0.0001400526
0.00012269466
9.9554629e-05
7.6188988e-05
5.7894942e-05
4.9381794e-05
2.7098432e-05
1.3223088e-05
8.8886244e-06
5.9726621e-06
3.4251376e-06
2.0124046e-06
1.1483882e-06
5.5861756e-07
2.1973479e-07
7.5523142e-08
2.3356459e-08
6.6245611e-09
1.7276626e-09
4.0826806e-10
8.4593022e-11
1.4545149e-11
1.9441671e-12
2.5895331e-13
1.3418811e-13
1.4363926e-13
0.00082619459
0.0002520608
0.00014552987
0.00012793326
0.00013973279
0.00012254064
9.9413994e-05
7.6062397e-05
5.7773912e-05
4.9259824e-05
2.7029066e-05
1.3188109e-05
8.8664216e-06
5.9497726e-06
3.4118886e-06
2.0046068e-06
1.1436708e-06
5.5579063e-07
2.1851856e-07
7.5082397e-08
2.321663e-08
6.58456e-09
1.7172343e-09
4.0581536e-10
8.4088524e-11
1.4459446e-11
1.9331729e-12
2.5786735e-13
1.3386673e-13
1.4327298e-13
0.00082782356
0.0002523085
0.00014572182
0.0001276617
0.00013941404
0.00012238663
9.9273493e-05
7.5935904e-05
5.7653016e-05
4.9138091e-05
2.6959771e-05
1.3153227e-05
8.844296e-06
5.926991e-06
3.3987045e-06
1.9968455e-06
1.1389766e-06
5.5297983e-07
2.1731002e-07
7.4644615e-08
2.3077771e-08
6.5448399e-09
1.7068794e-09
4.033798e-10
8.3587519e-11
1.4374327e-11
1.9222513e-12
2.5678723e-13
1.3354611e-13
1.4290794e-13
0.00082946475
0.00025254674
0.00014591139
0.00012739178
0.00013909639
0.00012223263
9.9133146e-05
7.5809519e-05
5.7532251e-05
4.9016595e-05
2.6890547e-05
1.3118441e-05
8.8222479e-06
5.9043168e-06
3.3855849e-06
1.98912e-06
1.1343047e-06
5.5018471e-07
2.1610885e-07
7.4209653e-08
2.2939829e-08
6.505383e-09
1.6965926e-09
4.0096005e-10
8.3089715e-11
1.4289738e-11
1.9113945e-12
2.557118e-13
1.3322558e-13
1.4254344e-13
0.00083111865
0.00025277522
0.00014609879
0.00012712352
0.0001387798
0.00012207865
9.8992942e-05
7.568325e-05
5.7411617e-05
4.8895332e-05
2.6821395e-05
1.3083753e-05
8.8002771e-06
5.8817509e-06
3.3725307e-06
1.9814315e-06
1.1296562e-06
5.4740568e-07
2.149153e-07
7.3777633e-08
2.2802852e-08
6.4662059e-09
1.6863789e-09
3.9855737e-10
8.2595398e-11
1.4205732e-11
1.9006103e-12
2.5464243e-13
1.3290604e-13
1.421804e-13
0.00083278576
0.00025299432
0.00014628395
0.00012685679
0.00013846427
0.00012192469
9.8852892e-05
7.5557082e-05
5.7291116e-05
4.8774302e-05
2.6752315e-05
1.3049161e-05
8.7783825e-06
5.8592917e-06
3.3595405e-06
1.9737785e-06
1.1250299e-06
5.4464201e-07
2.1372893e-07
7.3348336e-08
2.2666754e-08
6.4272804e-09
1.67623e-09
3.9616969e-10
8.2104114e-11
1.4122227e-11
1.8898877e-12
2.5357788e-13
1.3258702e-13
1.4181832e-13
0.00083446653
0.00025320466
0.0001464668
0.00012659157
0.00013814977
0.00012177072
9.8712986e-05
7.5431021e-05
5.7170748e-05
4.8653514e-05
2.6683308e-05
1.3014667e-05
8.7565642e-06
5.836939e-06
3.3466146e-06
1.966162e-06
1.1204267e-06
5.4189446e-07
2.1255018e-07
7.2921981e-08
2.2531621e-08
6.3886339e-09
1.6661539e-09
3.9379906e-10
8.1616307e-11
1.4039305e-11
1.8792376e-12
2.525193e-13
1.322689e-13
1.414576e-13
0.00083616144
0.00025340667
0.00014664723
0.00012632779
0.0001378363
0.00012161675
9.8573225e-05
7.5305056e-05
5.7050517e-05
4.853297e-05
2.6614374e-05
1.298027e-05
8.734822e-06
5.8146916e-06
3.3337522e-06
1.958581e-06
1.1158457e-06
5.3916244e-07
2.1137874e-07
7.2498417e-08
2.2397393e-08
6.3502475e-09
1.6561453e-09
3.9144408e-10
8.1131664e-11
1.3956908e-11
1.8686519e-12
2.5146544e-13
1.3195092e-13
1.4109746e-13
0.00083787092
0.00025360016
0.00014682517
0.00012606544
0.00013752384
0.00012146275
9.8433597e-05
7.5179178e-05
5.6930407e-05
4.8412658e-05
2.6545513e-05
1.2945969e-05
8.7131556e-06
5.7925509e-06
3.3209542e-06
1.9510365e-06
1.1112878e-06
5.3644632e-07
2.1021485e-07
7.2077759e-08
2.2264117e-08
6.312137e-09
1.6462089e-09
3.8910603e-10
8.0650474e-11
1.3875091e-11
1.8581384e-12
2.5041764e-13
1.3163396e-13
1.4073879e-13
0.00083959542
0.00025378405
0.00014700048
0.00012580458
0.00013721237
0.0001213087
9.8294113e-05
7.5053403e-05
5.6810422e-05
4.8292575e-05
2.6476724e-05
1.2911763e-05
8.6915645e-06
5.7705156e-06
3.3082193e-06
1.9435271e-06
1.1067518e-06
5.3374524e-07
2.0905799e-07
7.1659765e-08
2.21317e-08
6.2742724e-09
1.6363358e-09
3.8678268e-10
8.0172247e-11
1.3793768e-11
1.8476853e-12
2.4937457e-13
1.3131747e-13
1.40381e-13
0.00084133535
0.00025395727
0.00014717299
0.00012554522
0.00013690188
0.00012115465
9.815478e-05
7.4927718e-05
5.6690567e-05
4.817273e-05
2.6408006e-05
1.2877652e-05
8.6700483e-06
5.7485849e-06
3.2955479e-06
1.9360536e-06
1.1022384e-06
5.310599e-07
2.0790859e-07
7.1244635e-08
2.2000221e-08
6.2366794e-09
1.6265335e-09
3.8447592e-10
7.9697402e-11
1.3713013e-11
1.8373028e-12
2.4833725e-13
1.3100179e-13
1.4002446e-13
0.0008430911
0.00025411977
0.0001473426
0.00012528734
0.00013659236
0.00012100058
9.8015587e-05
7.4802123e-05
5.6570846e-05
4.8053126e-05
2.633936e-05
1.2843635e-05
8.6486058e-06
5.7267578e-06
3.2829388e-06
1.9286151e-06
1.0977469e-06
5.2838974e-07
2.0676628e-07
7.0832204e-08
2.1869616e-08
6.1993372e-09
1.6167962e-09
3.8218427e-10
7.922561e-11
1.3632766e-11
1.8269824e-12
2.4730439e-13
1.3068614e-13
1.3966834e-13
0.00084486304
0.00025427191
0.00014750912
0.00012503088
0.00013628377
0.00012084647
9.7876544e-05
7.4676619e-05
5.6451257e-05
4.7933761e-05
2.6270785e-05
1.2809712e-05
8.6272365e-06
5.7050349e-06
3.2703929e-06
1.9212126e-06
1.0932783e-06
5.2573516e-07
2.0563131e-07
7.0422596e-08
2.1739935e-08
6.1622626e-09
1.6071288e-09
3.7990903e-10
7.8757165e-11
1.3553083e-11
1.816732e-12
2.4627746e-13
1.303715e-13
1.3931368e-13
0.00084665154
0.00025441423
0.00014767248
0.00012477574
0.00013597612
0.00012069233
9.773763e-05
7.4551192e-05
5.6331788e-05
4.781463e-05
2.620228e-05
1.2775882e-05
8.6059401e-06
5.6834147e-06
3.2579089e-06
1.9138447e-06
1.0888313e-06
5.2309541e-07
2.0450321e-07
7.0015584e-08
2.1611092e-08
6.1254271e-09
1.5975231e-09
3.776481e-10
7.829161e-11
1.347388e-11
1.806541e-12
2.4525523e-13
1.300574e-13
1.3895993e-13
0.00084845693
0.00025454727
0.00014783261
0.00012452189
0.00013566938
0.00012053811
9.7598852e-05
7.442585e-05
5.6212442e-05
4.7695737e-05
2.6133846e-05
1.2742145e-05
8.5847168e-06
5.6618977e-06
3.2454874e-06
1.9065125e-06
1.0844068e-06
5.2047125e-07
2.0338244e-07
6.9611392e-08
2.148317e-08
6.0888585e-09
1.587987e-09
3.7540353e-10
7.78294e-11
1.3395239e-11
1.7964201e-12
2.4423881e-13
1.2974416e-13
1.3860748e-13
0.00085027954
0.00025467078
0.0001479893
0.00012426932
0.00013536354
0.00012038383
9.7460207e-05
7.4300579e-05
5.6093221e-05
4.757708e-05
2.6065483e-05
1.2708499e-05
8.5635659e-06
5.6404821e-06
3.2331276e-06
1.899215e-06
1.0800041e-06
5.1786209e-07
2.0226868e-07
6.9209861e-08
2.1356109e-08
6.0525373e-09
1.5785152e-09
3.7317386e-10
7.7370222e-11
1.3317101e-11
1.7863612e-12
2.4322693e-13
1.2943103e-13
1.3825553e-13
0.00085211966
0.00025478366
0.00014814252
0.00012401807
0.00013505857
0.00012022949
9.7321698e-05
7.4175373e-05
5.597412e-05
4.7458657e-05
2.5997191e-05
1.2674944e-05
8.5424861e-06
5.6191689e-06
3.2208298e-06
1.891953e-06
1.0756238e-06
5.1526831e-07
2.0116215e-07
6.8811111e-08
2.1229957e-08
6.0164793e-09
1.5691124e-09
3.7096038e-10
7.6914359e-11
1.323952e-11
1.776372e-12
2.4222095e-13
1.291189e-13
1.37905e-13
0.00085397757
0.0002548849
0.00014829209
0.0001237682
0.00013475445
0.00012007508
9.7183321e-05
7.4050242e-05
5.5855145e-05
4.734047e-05
2.5928968e-05
1.2641478e-05
8.5214761e-06
5.597956e-06
3.2085926e-06
1.884725e-06
1.0712648e-06
5.1268906e-07
2.0006237e-07
6.8414903e-08
2.1104624e-08
5.9806557e-09
1.5597701e-09
3.6876089e-10
7.6461331e-11
1.316241e-11
1.766441e-12
2.4121954e-13
1.2880723e-13
1.3755529e-13
0.0008558535
0.00025497442
0.00014843784
0.00012351963
0.00013445119
0.0001199206
9.7045086e-05
7.3925183e-05
5.5736298e-05
4.722253e-05
2.5860815e-05
1.2608102e-05
8.5005358e-06
5.5768429e-06
3.1964162e-06
1.877532e-06
1.066928e-06
5.1012503e-07
1.9896976e-07
6.8021439e-08
2.0980189e-08
5.9450917e-09
1.5504956e-09
3.6657728e-10
7.6011555e-11
1.3085845e-11
1.7565782e-12
2.4022374e-13
1.2849637e-13
1.372068e-13
0.00085774767
0.00025505257
0.00014857971
0.00012327232
0.00013414874
0.00011976605
9.6906985e-05
7.3800197e-05
5.5617577e-05
4.7104831e-05
2.5792729e-05
1.2574814e-05
8.4796644e-06
5.5558288e-06
3.1842999e-06
1.8703729e-06
1.0626125e-06
5.0757567e-07
1.9788398e-07
6.7630562e-08
2.0856591e-08
5.9097681e-09
1.5412833e-09
3.6440815e-10
7.5564724e-11
1.300977e-11
1.7467755e-12
2.3923234e-13
1.2818561e-13
1.3685877e-13
0.00085966027
0.00025511981
0.00014871751
0.00012302625
0.00013384711
0.00011961142
9.6769011e-05
7.3675266e-05
5.5498977e-05
4.6987363e-05
2.5724712e-05
1.2541612e-05
8.4588613e-06
5.5349143e-06
3.1722446e-06
1.8632487e-06
1.0583191e-06
5.0504134e-07
1.9680525e-07
6.7242384e-08
2.0733873e-08
5.8746998e-09
1.5321378e-09
3.6225471e-10
7.5121094e-11
1.2934233e-11
1.7370402e-12
2.3824665e-13
1.278758e-13
1.3651212e-13
0.00086159148
0.00025517673
0.00014885121
0.00012278131
0.00013354625
0.0001194567
9.6631168e-05
7.355038e-05
5.5380491e-05
4.687012e-05
2.5656761e-05
1.2508493e-05
8.438125e-06
5.5140975e-06
3.1602486e-06
1.856158e-06
1.0540466e-06
5.0252128e-07
1.9573309e-07
6.6856682e-08
2.0611955e-08
5.83986e-09
1.5230513e-09
3.6011501e-10
7.4680238e-11
1.2859159e-11
1.7273623e-12
2.3726557e-13
1.2756659e-13
1.3616641e-13
0.00086354144
0.00025522333
0.00014898077
0.00012253753
0.00013324618
0.00011930188
9.6493436e-05
7.3425544e-05
5.5262124e-05
4.675311e-05
2.5588877e-05
1.2475458e-05
8.4174545e-06
5.4933778e-06
3.1483119e-06
1.8491016e-06
1.049796e-06
5.0001618e-07
1.9466794e-07
6.6473665e-08
2.0490914e-08
5.8052739e-09
1.5140313e-09
3.579909e-10
7.4242566e-11
1.2784621e-11
1.7177514e-12
2.3629011e-13
1.2725827e-13
1.3582199e-13
0.00086551024
0.00025525859
0.00014910597
0.00012229496
0.00013294687
0.00011914695
9.6355844e-05
7.3300759e-05
5.5143878e-05
4.663634e-05
2.552106e-05
1.2442505e-05
8.3968487e-06
5.4727536e-06
3.1364336e-06
1.8420786e-06
1.0455663e-06
4.9752548e-07
1.936095e-07
6.6093188e-08
2.0370695e-08
5.7709241e-09
1.5050726e-09
3.5588106e-10
7.3807799e-11
1.2710571e-11
1.7082003e-12
2.3531915e-13
1.2695016e-13
1.3547811e-13
0.00086749797
0.0002552814
0.00014922674
0.0001220536
0.00013264829
0.00011899194
9.6218382e-05
7.3176032e-05
5.5025756e-05
4.6519804e-05
2.5453309e-05
1.2409633e-05
8.3763067e-06
5.4522257e-06
3.1246143e-06
1.8350896e-06
1.0413583e-06
4.9504952e-07
1.9255796e-07
6.5715356e-08
2.0251338e-08
5.7368244e-09
1.4961792e-09
3.5378661e-10
7.3376177e-11
1.263705e-11
1.6987156e-12
2.3435384e-13
1.2664303e-13
1.3513559e-13
0.00086950467
0.00025529151
0.00014934289
0.00012181351
0.00013235043
0.00011883683
9.6081042e-05
7.3051343e-05
5.4907756e-05
4.6403497e-05
2.5385625e-05
1.237684e-05
8.3558275e-06
5.4317927e-06
3.1128527e-06
1.8281332e-06
1.0371708e-06
4.9258748e-07
1.9151286e-07
6.5339953e-08
2.0132764e-08
5.7029487e-09
1.4873437e-09
3.5170566e-10
7.2947287e-11
1.2563986e-11
1.6892874e-12
2.3339303e-13
1.263364e-13
1.3479391e-13
0.00087153035
0.00025528917
0.00014945427
0.00012157461
0.00013205329
0.00011868161
9.5943833e-05
7.2926693e-05
5.4789878e-05
4.6287424e-05
2.5318006e-05
1.2344124e-05
8.3354105e-06
5.4114537e-06
3.1011491e-06
1.8212101e-06
1.0330045e-06
4.9013996e-07
1.9047457e-07
6.4967152e-08
2.0015038e-08
5.6693186e-09
1.4785725e-09
3.496398e-10
7.2521483e-11
1.2491443e-11
1.6799241e-12
2.3243758e-13
1.2603054e-13
1.3445336e-13
0.00087357499
0.00025527482
0.00014956089
0.00012133685
0.00013175684
0.0001185263
9.5806749e-05
7.2802085e-05
5.467212e-05
4.6171575e-05
2.5250454e-05
1.2311483e-05
8.3150536e-06
5.3912073e-06
3.0895021e-06
1.8143194e-06
1.0288585e-06
4.8770642e-07
1.8944275e-07
6.4596796e-08
1.9898102e-08
5.6359151e-09
1.4698601e-09
3.4758767e-10
7.2098472e-11
1.2419367e-11
1.6706185e-12
2.3148641e-13
1.257248e-13
1.3411325e-13
0.00087563853
0.00025524903
0.00014966258
0.00012110024
0.00013146108
0.0001183709
9.5669779e-05
7.2677499e-05
5.4554475e-05
4.6055943e-05
2.5182966e-05
1.2278914e-05
8.2947552e-06
5.3710535e-06
3.0779123e-06
1.8074618e-06
1.0247336e-06
4.8528719e-07
1.884176e-07
6.4228988e-08
1.9781997e-08
5.6027524e-09
1.4612107e-09
3.4555036e-10
7.1678503e-11
1.2347804e-11
1.6613774e-12
2.3054076e-13
1.2542004e-13
1.3377448e-13
0.00087772091
0.00025521224
0.00014975935
0.0001208647
0.00013116598
0.00011821536
9.5532923e-05
7.2552945e-05
5.4436952e-05
4.5940529e-05
2.5115544e-05
1.2246415e-05
8.274514e-06
5.3509905e-06
3.066378e-06
1.8006361e-06
1.0206286e-06
4.8288152e-07
1.8739869e-07
6.3863523e-08
1.9666647e-08
5.5698052e-09
1.4526175e-09
3.4352603e-10
7.1261178e-11
1.2276679e-11
1.652191e-12
2.2959955e-13
1.2511585e-13
1.3343661e-13
0.00087982198
0.000255164
0.00014985119
0.0001206303
0.00013087155
0.00011805973
9.5396199e-05
7.2428417e-05
5.431956e-05
4.5825349e-05
2.5048188e-05
1.2213985e-05
8.2543293e-06
5.3310178e-06
3.0548996e-06
1.7938429e-06
1.0165445e-06
4.8049007e-07
1.8638643e-07
6.3500601e-08
1.9552126e-08
5.537099e-09
1.4440872e-09
3.4151648e-10
7.0846884e-11
1.2206066e-11
1.6430687e-12
2.2866378e-13
1.2481255e-13
1.3309997e-13
0.00088194161
0.00025510303
0.00014993786
0.00012039716
0.00013057776
0.00011790401
9.52596e-05
7.2303919e-05
5.420229e-05
4.5710395e-05
2.4980898e-05
1.2181621e-05
8.2341999e-06
5.3111343e-06
3.0434762e-06
1.7870811e-06
1.0124802e-06
4.7811229e-07
1.8538052e-07
6.3140075e-08
1.9438382e-08
5.5046159e-09
1.4356147e-09
3.395204e-10
7.0435335e-11
1.2135912e-11
1.6340035e-12
2.2773229e-13
1.2450943e-13
1.3276382e-13
0.00088407958
0.0002550288
0.00015001934
0.00012016526
0.00013028461
0.0001177482
9.5123132e-05
7.2179452e-05
5.4085145e-05
4.5595656e-05
2.4913673e-05
1.214932e-05
8.2141244e-06
5.2913401e-06
3.0321082e-06
1.7803515e-06
1.0084366e-06
4.7574851e-07
1.8438116e-07
6.2782055e-08
1.9325457e-08
5.4723704e-09
1.4272043e-09
3.3753897e-10
7.0026797e-11
1.2066264e-11
1.625002e-12
2.2680632e-13
1.2420734e-13
1.3242904e-13
0.00088623568
0.00025494153
0.0001500956
0.00011993464
0.00012999209
0.0001175923
9.4986798e-05
7.2055006e-05
5.3968128e-05
4.5481126e-05
2.4846515e-05
1.211708e-05
8.1941002e-06
5.2716329e-06
3.0207937e-06
1.7736526e-06
1.0044124e-06
4.7339789e-07
1.8338787e-07
6.2426316e-08
1.9213267e-08
5.4403347e-09
1.4188484e-09
3.3557018e-10
6.9620831e-11
1.1997047e-11
1.6160539e-12
2.2588466e-13