/*--------------------------------*- C++ -*----------------------------------*\
| =========                 |                                                 |
| \\      /  F ield         | OpenFOAM: The Open Source CFD Toolbox           |
|  \\    /   O peration     | Version:  v2012                                 |
|   \\  /    A nd           | Website:  www.openfoam.com                      |
|    \\/     M anipulation  |                                                 |
\*---------------------------------------------------------------------------*/
FoamFile
{
    version     2.0;
    format      ascii;
    class       volScalarField;
    location    "600";
    object      k;
}
// * * * * * * * * * * * * * * * * * * * * * * * * * * * * * * * * * * * * * //

dimensions      [0 2 -2 0 0 0 0];


internalField   nonuniform List<scalar> 
24000
(
0.10988527
0.13008606
0.1827312
0.38551525
1.0126263
1.9898242
2.9286358
3.4052727
3.1984193
2.5596957
1.8636012
1.7910318
2.7739783
3.6797264
3.7514203
3.1969685
2.3426937
1.481625
0.82149542
0.41720398
0.19987592
0.091421013
0.039853333
0.016359333
0.0061833477
0.0020777757
0.00060011189
0.00019664738
0.00033612596
0.0024033857
0.10987984
0.13000941
0.18229542
0.38294022
1.005386
1.9787738
2.9154547
3.3929773
3.1896749
2.5543906
1.8602317
1.7866095
2.7658441
3.667672
3.7387416
3.1853954
2.3334108
1.4751856
0.81767551
0.41518807
0.19889388
0.090970424
0.039657764
0.0162797
0.006153541
0.0020678717
0.0005973034
0.00019578312
0.00033470803
0.0023928448
0.10988081
0.12993826
0.18188759
0.38067203
0.99924482
1.9696374
2.9048348
3.383492
3.1824962
2.5491442
1.8558596
1.7819786
2.7580623
3.6555801
3.7250946
3.1725288
2.3229274
1.4677492
0.8132631
0.4128781
0.19777848
0.09046206
0.039438165
0.016190653
0.0061203877
0.0020569777
0.00059437192
0.00019526684
0.00033485722
0.0023939349
0.10987953
0.12986689
0.18148568
0.3784478
0.99317654
1.9604475
2.8942333
3.373775
3.1748404
2.5432639
1.8511905
1.7773366
2.750637
3.6436592
3.7115588
3.1599809
2.3130664
1.4610974
0.80947462
0.41094822
0.19686077
0.090046577
0.03925884
0.016117724
0.0060930871
0.0020479344
0.0005918892
0.00019473161
0.00033457217
0.0023917524
0.10987634
0.12979462
0.18108547
0.37624876
0.98715814
1.9512896
2.8837383
3.3640687
3.1670482
2.5371597
1.8463484
1.7727182
2.7435909
3.6321395
3.6981463
3.1472854
2.3028883
1.4540841
0.80541093
0.40885209
0.19585594
0.08958955
0.03906115
0.016037263
0.0060629617
0.002037948
0.00058912846
0.00019408582
0.00033405989
0.0023880187
0.1098715
0.12972184
0.18068816
0.37407304
0.98118155
1.9421627
2.8732996
3.3543538
3.1591586
2.5309085
1.841398
1.7681186
2.7368207
3.6209079
3.6848436
3.1345336
2.2925663
1.446915
0.80123226
0.40668727
0.19481484
0.089114871
0.038855424
0.015953397
0.0060315194
0.002027514
0.00058624307
0.00019341537
0.0003335428
0.0023842323
0.10986518
0.12964856
0.18029375
0.37191804
0.97524059
1.9330643
2.8629055
3.3446433
3.1512063
2.5245679
1.8363819
1.7635386
2.7302519
3.609891
3.6716322
3.1217573
2.2821603
1.4396554
0.79698915
0.40448545
0.19375491
0.088631325
0.038645773
0.015867905
0.0059994557
0.0020168672
0.00058329162
0.00019271326
0.00033294943
0.0023799096
0.10985751
0.12957476
0.17990223
0.36978227
0.96933127
1.9239923
2.8525466
3.3349401
3.1432219
2.5181595
1.8313197
1.7589766
2.7238262
3.5990299
3.6584968
3.1089794
2.2717094
1.4323409
0.79270437
0.40225848
0.19268169
0.088141318
0.038433195
0.015781177
0.0059669158
0.0020060577
0.00058029257
0.00019199567
0.00033233055
0.0023754056
0.10984854
0.12950044
0.1795135
0.36766459
0.96345086
1.9149448
2.8422167
3.3252462
3.1352191
2.5117103
1.8262323
1.7544319
2.7175044
3.5882846
3.6454273
3.0962181
2.2612465
1.4250059
0.78840309
0.40002138
0.19160304
0.087648664
0.038219409
0.015693936
0.0059341754
0.0019951781
0.0005772714
0.00019126755
0.00033168669
0.0023707261
0.10983832
0.12942556
0.17912743
0.36556414
0.9575975
1.9059208
2.8319115
3.3155622
3.1272065
2.5052395
1.8211318
1.7499034
2.7112601
3.5776282
3.6324167
3.0834835
2.2507896
1.4176678
0.78409704
0.39778062
0.19052219
0.087154841
0.03800506
0.015606447
0.0059013348
0.0019842626
0.00057423837
0.0001905332
0.00033102733
0.0023659379
0.10982687
0.1293501
0.1787439
0.36348024
0.95176987
1.8969194
2.8216278
3.305888
3.1191892
2.4987559
1.8160243
1.7453907
2.7050755
3.5670424
3.6194598
3.0707828
2.2403519
1.4103401
0.77979588
0.39554187
0.18944208
0.086661263
0.037790784
0.015518975
0.0058684959
0.0019733454
0.00057120335
0.00018979555
0.00033035672
0.0023610717
0.10981421
0.12927404
0.17836281
0.36141238
0.94596707
1.88794
2.8113635
3.2962233
3.1111704
2.492265
1.8109143
1.740893
2.6989383
3.5565149
3.606553
3.0581204
2.2299414
1.4030307
0.77550515
0.39330824
0.18836426
0.086168654
0.037576896
0.015431649
0.0058357073
0.001962443
0.0005681711
0.00018905622
0.00032967776
0.0023561481
0.10980035
0.12919737
0.17798405
0.35936012
0.94018842
1.8789822
2.801117
3.2865682
3.1031524
2.4857707
1.8058045
1.7364102
2.69284
3.5460366
3.5936937
3.0454991
2.2195639
1.3957455
0.77122908
0.39108225
0.18729005
0.085677652
0.037363687
0.015344591
0.0058030158
0.0019515713
0.0005651463
0.00018831689
0.00032899362
0.0023511896
0.10978528
0.12912008
0.17760754
0.35732313
0.93443345
1.8700457
2.7908871
3.2769223
3.0951365
2.4792755
1.8006973
1.7319418
2.6867746
3.5356017
3.58088
3.0329209
2.2092229
1.3884881
0.76696995
0.3888651
0.18622003
0.085188509
0.03715126
0.015257842
0.0057704367
0.0019407355
0.00056213049
0.00018757816
0.00032830558
0.0023462054
0.10976903
0.12904215
0.17723321
0.3553011
0.92870181
1.8611305
2.780673
3.2672856
3.0871239
2.4727814
1.795594
1.7274878
2.6807378
3.5252055
3.5681106
3.0203874
2.1989216
1.3812616
0.76273015
0.38665825
0.18515497
0.084701612
0.036939794
0.01517148
0.0057379997
0.0019299455
0.00055912659
0.00018684097
0.00032761511
0.0023412059
0.1097516
0.12896358
0.17686096
0.3532938
0.92299322
1.8522363
2.7704739
3.257658
3.0791154
2.4662896
1.790496
1.7230479
2.6747267
3.514845
3.5553844
3.0078993
2.1886616
1.3740677
0.75851073
0.38446223
0.18409513
0.084217067
0.036729331
0.015085519
0.0057057103
0.0019192033
0.00055613511
0.00018610546
0.00032692243
0.0023361928
0.10973298
0.12888436
0.17649075
0.35130101
0.91730752
1.8433631
2.7602896
3.2480396
3.0711117
2.4598012
1.7854039
1.7186222
2.6687387
3.5045179
3.5427008
2.9954574
2.1784443
1.3669078
0.75431287
0.38227782
0.18304093
0.083735087
0.036519971
0.015000003
0.0056735853
0.0019085146
0.00055315781
0.00018537237
0.00032622915
0.0023311774
0.10971319
0.12880447
0.1761225
0.34932257
0.91164455
1.8345108
2.7501195
3.2384302
3.0631132
2.4533169
1.7803185
1.7142106
2.6627724
3.4942224
3.5300592
2.9830622
2.1682705
1.3597825
0.75013672
0.38010497
0.1819923
0.083255623
0.036311687
0.014914919
0.005641619
0.0018978774
0.00055019412
0.0001846416
0.0003255353
0.00232616
0.10969224
0.12872391
0.17575617
0.34735829
0.90600424
1.8256794
2.7399634
3.22883
3.0551202
2.4468372
1.7752404
1.709813
2.6568265
3.4839573
3.5174593
2.9707143
2.1581414
1.3526931
0.74598339
0.37794441
0.18094966
0.082778888
0.036104578
0.014830309
0.0056098289
0.0018872977
0.00054724581
0.00018391366
0.0003248416
0.0023211458
0.10967012
0.12864267
0.17539171
0.34540804
0.90038647
1.816869
2.7298212
3.2192388
3.0471329
2.4403626
1.7701698
1.7054294
2.6508999
3.4737217
3.5049009
2.9584139
2.1480574
1.3456399
0.74185295
0.37579612
0.17991296
0.082304848
0.035898625
0.014746165
0.0055782107
0.001876774
0.00054431236
0.00018318833
0.00032414754
0.002316131
0.10964685
0.12856074
0.17502907
0.34347167
0.89479118
1.8080795
2.7196927
3.2096567
3.0391518
2.4338937
1.7651073
1.7010599
2.644992
3.4635149
3.4923837
2.9461612
2.1380188
1.3386235
0.73774585
0.37366046
0.17888242
0.081833628
0.03569389
0.014662514
0.0055467757
0.0018663102
0.00054139503
0.00018246614
0.00032345428
0.002311124
0.10962243
0.12847812
0.1746682
0.34154904
0.88921832
1.7993109
2.7095777
3.2000838
3.0311768
2.4274307
1.7600529
1.6967045
2.6391024
3.4533366
3.4799076
2.9339561
2.1280255
1.3316433
0.73366162
0.37153701
0.1778578
0.081365083
0.035490301
0.014579324
0.0055155109
0.0018559019
0.00053849247
0.00018174672
0.00032276142
0.0023061219
0.10959686
0.12839479
0.17430904
0.33964003
0.88366785
1.7905633
2.6994762
3.19052
3.0232083
2.4209737
1.7550068
1.6923632
2.6332306
3.4431862
3.4674726
2.9217991
2.1180782
1.3247002
0.729601
0.36942631
0.17683939
0.080899383
0.035287941
0.014496632
0.0054844312
0.0018455542
0.00053560623
0.00018103051
0.00032206949
0.0023011284
0.10957014
0.12831075
0.17395154
0.33774451
0.87813977
1.7818366
2.6893881
3.1809655
3.0152464
2.414523
1.7499694
1.6880361
2.6273763
3.4330635
3.4550787
2.9096902
2.1081769
1.3177941
0.72556371
0.36732812
0.17582706
0.08043644
0.035086766
0.014414416
0.005453528
0.001835264
0.00053273535
0.00018031713
0.00032137773
0.0022961381
0.1095423
0.12822597
0.17359567
0.33586237
0.87263403
1.773131
2.6793134
3.1714202
3.0072911
2.4080786
1.7449407
1.6837233
2.6215393
3.4229683
3.4427258
2.8976295
2.0983217
1.3109252
0.72155013
0.36524274
0.17482099
0.079976363
0.034886829
0.014332704
0.0054228118
0.0018250352
0.00052988103
0.00017960713
0.00032068742
0.0022911602
0.10951332
0.12814046
0.17324137
0.33399349
0.86715063
1.7644464
2.669252
3.1618841
2.9993424
2.4016406
1.7399208
1.6794246
2.6157193
3.4129005
3.430414
2.885617
2.0885124
1.304093
0.71755962
0.36316968
0.17382088
0.079518985
0.034688049
0.014251457
0.0053922675
0.0018148625
0.00052704174
0.00017890007
0.00031999797
0.0022861904
0.1094832
0.1280542
0.1728886
0.33213772
0.86168951
1.7557828
2.6592039
3.1523573
2.9914005
2.3952092
1.7349099
1.6751403
2.6099164
3.4028601
3.4181433
2.8736531
2.0787496
1.2972983
0.71359289
0.36110946
0.17282703
0.079064475
0.03449051
0.014170713
0.0053619106
0.0018047513
0.00052421906
0.00017819638
0.00031930984
0.0022812319
0.10945197
0.12796718
0.1725373
0.33029496
0.85625065
1.7471402
2.649169
3.1428398
2.9834654
2.3887844
1.7299081
1.6708704
2.6041304
3.3928471
3.4059138
2.8617376
2.0690331
1.2905406
0.70964949
0.35906174
0.17183925
0.078612722
0.034294157
0.014090447
0.0053317306
0.0017946979
0.00052141186
0.0001774956
0.00031862204
0.0022762778
0.1094196
0.12787938
0.17218742
0.32846507
0.85083404
1.7385188
2.6391472
3.1333315
2.9755371
2.3823662
1.7249154
1.6666148
2.5983613
3.3828613
3.3937256
2.8498706
2.059363
1.2838201
0.70572974
0.35702679
0.17085772
0.07816383
0.034099041
0.014010684
0.0053017379
0.0017847061
0.00051862133
0.00017679828
0.00031793584
0.002271337
0.10938612
0.1277908
0.1718389
0.32664793
0.84543961
1.7299184
2.6291387
3.1238325
2.9676156
2.3759547
1.7199319
1.6623737
2.592609
3.3729031
3.3815789
2.8380522
2.0497388
1.2771363
0.70183291
0.35500407
0.16988209
0.077717613
0.033905073
0.013931383
0.0052719158
0.00177477
0.00051584579
0.00017610393
0.00031725062
0.002266405
0.10935152
0.12770141
0.1714917
0.32484341
0.84006734
1.7213391
2.6191431
3.1143428
2.959701
2.3695499
1.7149577
1.658147
2.5868737
3.3629723
3.3694736
2.8262824
2.0401611
1.2704897
0.69795969
0.35299408
0.16891269
0.077274248
0.033712339
0.013852583
0.0052422807
0.0017648953
0.00051308689
0.000175413
0.00031656683
0.0022614852
0.1093158
0.1276112
0.17114577
0.32305139
0.83471724
1.7127809
2.6091607
3.1048623
2.9517931
2.3631518
1.7099928
1.6539349
2.5811551
3.3530691
3.3574099
2.8145613
2.0306296
1.2638798
0.69410956
0.35099644
0.16794928
0.076833605
0.033520775
0.013774255
0.0052128205
0.0017550778
0.00051034331
0.00017472495
0.00031588335
0.0022565695
0.10927897
0.12752016
0.17080105
0.32127169
0.82938893
1.7042439
2.5991912
3.0953909
2.943892
2.3567604
1.7050372
1.6497372
2.5754533
3.3431935
3.3453877
2.8028889
2.0211444
1.257307
0.69028282
0.34901142
0.16699203
0.07639579
0.033330437
0.013696426
0.0051835459
0.0017453213
0.00050761632
0.00017404041
0.00031520169
0.0022516686
0.10924101
0.12742826
0.17045748
0.3195043
0.82408333
1.6957277
2.5892347
3.0859288
2.9359977
2.3503758
1.7000909
1.645554
2.5697682
3.3333455
3.3334072
2.7912649
2.0117049
1.2507703
0.68647863
0.34703838
0.16604058
0.075960593
0.03314122
0.013619047
0.005154438
0.0017356192
0.00050490396
0.00017335881
0.00031452115
0.0022467777
0.10920194
0.1273355
0.170115
0.31774881
0.81879803
1.6872332
2.579291
3.0764757
2.92811
2.343998
1.6951539
1.6413853
2.5640999
3.3235252
3.3214683
2.7796897
2.0023117
1.2442706
0.68269782
0.34507795
0.16509528
0.075528224
0.032953229
0.013542167
0.0051255164
0.0017259785
0.00050220825
0.00017268069
0.00031384227
0.0022419003
0.10916174
0.12724185
0.16977355
0.31600572
0.81353922
1.6787581
2.5693601
3.0670317
2.920229
2.3376268
1.6902263
1.6372311
2.5584483
3.3137327
3.3095712
2.7681631
1.9929645
1.2378073
0.67893978
0.34312969
0.16415589
0.075098533
0.032766391
0.013465752
0.0050967672
0.001716394
0.00049952763
0.00017200537
0.00031316358
0.0022370261
0.10912042
0.1271473
0.16943307
0.31427484
0.80830675
1.6703025
2.559442
3.0575966
2.9123545
2.3312625
1.685308
1.6330913
2.5528133
3.3039677
3.2977156
2.7566849
1.9836631
1.2313805
0.67520478
0.34119385
0.16322257
0.074671637
0.032580766
0.013389831
0.0050682027
0.0017068705
0.00049686359
0.00017133355
0.00031248668
0.0022321664
0.10907796
0.12705182
0.16909351
0.31255602
0.80310052
1.6618662
2.5495365
3.0481706
2.9044865
2.3249048
1.680399
1.6289661
2.5471949
3.2942307
3.2859017
2.7452549
1.9744069
1.2249891
0.67149183
0.33926971
0.1622949
0.074247288
0.032396232
0.013314349
0.0050398003
0.0016973999
0.00049421374
0.00017066452
0.00031181064
0.0022273146
0.10903438
0.12695539
0.16875481
0.3108491
0.79792037
1.6534493
2.5396436
3.0387533
2.896625
2.3185537
1.6754992
1.6248552
2.5415931
3.2845213
3.2741295
2.7338734
1.9651965
1.2186341
0.66780181
0.33735791
0.16137325
0.073825711
0.032212901
0.013239356
0.0050115808
0.0016879897
0.00049158028
0.0001699989
0.00031113615
0.0022224756
0.10898966
0.126858
0.16841689
0.30915389
0.79276613
1.6450518
2.5297631
3.0293448
2.8887697
2.3122091
1.6706087
1.6207588
2.5360076
3.2748396
3.262399
2.7225402
1.9560315
1.212315
0.6641341
0.335458
0.16045736
0.073406743
0.032030691
0.013164817
0.004983529
0.0016786343
0.00048896151
0.00016933598
0.00031046173
0.0022176389
0.1089438
0.12675962
0.16807969
0.30747024
0.78763768
1.6366736
2.519895
3.019945
2.8809206
2.305871
1.6657275
1.6166767
2.5304384
3.2651854
3.25071
2.7112555
1.9469121
1.2060319
0.66048911
0.33357033
0.15954747
0.072990535
0.03184968
0.013090766
0.0049556601
0.0016693393
0.00048635922
0.00016867661
0.00030978937
0.0022128185
0.10889678
0.12666022
0.16774314
0.30579796
0.78253483
1.6283146
2.5100392
3.0105537
2.8730775
2.2995393
1.6608554
1.6126089
2.5248856
3.255559
3.2390628
2.7000189
1.9378377
1.199784
0.65686585
0.33169416
0.15864311
0.072576824
0.031669739
0.013017145
0.0049279499
0.001660096
0.00048377086
0.00016802005
0.00030911804
0.0022080072
0.10884862
0.1265598
0.16740716
0.30413688
0.77745745
1.6199749
2.5001954
3.0011709
2.8652404
2.2932138
1.6559925
1.6085554
2.5193488
3.2459601
3.2274573
2.6888307
1.928809
1.1935722
0.65326532
0.32983024
0.15774475
0.07216587
0.031490995
0.012944012
0.0049004223
0.0016509132
0.00048119898
0.00016736698
0.00030844848
0.0022032101
0.10879929
0.12645831
0.1670717
0.30248684
0.77240538
1.6116544
2.4903637
2.9917965
2.8574091
2.2868945
1.6511387
1.6045161
2.5138281
3.2363888
3.2158934
2.6776908
1.9198255
1.1873959
0.64968686
0.32797806
0.15685207
0.071757499
0.031313362
0.012871328
0.0048730611
0.0016417847
0.00047864172
0.00016671663
0.00030777902
0.0021984152
0.10874879
0.12635575
0.16673668
0.30084766
0.76737843
1.603353
2.480544
2.9824302
2.8495836
2.2805814
1.6462941
1.600491
2.5083231
3.2268448
3.2043709
2.666599
1.9108873
1.1812553
0.64613083
0.32613798
0.15596532
0.071351858
0.031136917
0.012799129
0.0048458818
0.0016327165
0.00047610093
0.00016606984
0.00030711156
0.0021936363
0.10869712
0.12625208
0.16640206
0.29921917
0.76237645
1.5950707
2.470736
2.9730722
2.8417636
2.2742742
1.6414584
1.5964799
2.5028341
3.2173285
3.1928901
2.6555549
1.9019933
1.1751492
0.64259612
0.32430916
0.155084
0.070948664
0.03096152
0.012727352
0.0048188582
0.001623699
0.00047357382
0.00016542578
0.000306445
0.0021888653
0.10864425
0.12614728
0.16606774
0.29760119
0.75739924
1.5868075
2.4609397
2.9637221
2.833949
2.2679731
1.6366317
1.5924827
2.4973607
3.2078394
3.1814506
2.6445588
1.8931444
1.1690786
0.63908364
0.32249228
0.15420851
0.070548156
0.030787291
0.01265605
0.004792013
0.0016147405
0.0004710628
0.00016478509
0.00030578001
0.002184107
0.1085902
0.12604132
0.16573366
0.29599353
0.75244663
1.5785633
2.4511549
2.9543799
2.8261397
2.2616777
1.6318139
1.5884995
2.491903
3.1983778
3.1700524
2.6336104
1.8843399
1.1630426
0.63559261
0.3206868
0.15333854
0.07015015
0.030614137
0.012585183
0.0047653288
0.0016058347
0.00046856589
0.00016414698
0.00030511492
0.0021793495
0.10853494
0.12593419
0.16539975
0.29439604
0.74751845
1.570338
2.4413815
2.9450455
2.8183357
2.2553883
1.6270049
1.58453
2.4864606
3.1889432
3.1586954
2.6227095
1.8755799
1.1570416
0.63212348
0.3188931
0.15247433
0.0697548
0.03044214
0.012514788
0.0047388216
0.0015969874
0.000466085
0.00016351235
0.0003044519
0.0021746084
0.10847847
0.12582585
0.16506592
0.29280854
0.74261454
1.5621317
2.4316194
2.9357187
2.8105366
2.2491044
1.6222046
1.5805743
2.4810335
3.1795359
3.1473796
2.6118559
1.8668637
1.1510744
0.62867519
0.3171104
0.15161541
0.069361835
0.030271164
0.012444804
0.0047124665
0.0015881898
0.00046361751
0.00016288044
0.00030378993
0.0021698761
0.10842077
0.12571628
0.16473212
0.29123085
0.7377347
1.5539443
2.4218686
2.9263995
2.8027424
2.2428262
1.6174129
1.576632
2.4756214
3.1701555
3.1361049
2.60105
1.8581921
1.1451423
0.62524877
0.31533945
0.15076224
0.068971519
0.030101342
0.01237529
0.0046862878
0.0015794505
0.00046116596
0.0001622519
0.00030312966
0.0021651574
0.10836184
0.12560545
0.16439828
0.28966283
0.73287876
1.5457757
2.4121287
2.9170877
2.7949529
2.2365535
1.6126299
1.5727033
2.4702244
3.1608021
3.1248713
2.5902913
1.8495645
1.1392443
0.62184352
0.31357974
0.14991452
0.068583675
0.029932583
0.012306207
0.0046602687
0.0015707637
0.00045872848
0.00016162597
0.00030246947
0.0021604407
0.10830167
0.12549334
0.16406432
0.28810426
0.72804654
1.5376259
2.4023999
2.9077832
2.7871681
2.2302863
1.6078555
1.5687878
2.4648419
3.1514753
3.1136784
2.5795798
1.8409809
1.1333809
0.61845984
0.31183163
0.14907248
0.068198452
0.029764966
0.012237591
0.0046344249
0.0015621348
0.0004563069
0.00016100348
0.00030181129
0.0021557396
0.10824024
0.12537992
0.16373018
0.28655501
0.72323783
1.5294949
2.3926819
2.8984858
2.7793877
2.2240244
1.6030894
1.5648854
2.4594741
3.1421752
3.1025262
2.568915
1.8324405
1.1275507
0.6150966
0.31009429
0.14823562
0.067815569
0.029598353
0.012169379
0.0046087305
0.001553555
0.00045389853
0.00016038365
0.00030115398
0.0021510461
0.10817755
0.12526517
0.16339577
0.28501491
0.71845247
1.5213826
2.3829746
2.8891955
2.7716117
2.2177678
1.5983318
1.5609961
2.4541205
3.1329015
3.0914146
2.5582972
1.8239439
1.1217548
0.61175471
0.30836842
0.14740437
0.067435268
0.029432862
0.012101626
0.0045832083
0.001545032
0.00045150573
0.0001597671
0.00030049825
0.0021463651
0.10811358
0.12514905
0.16306102
0.28348376
0.71369027
1.513289
2.3732779
2.8799121
2.7638399
2.2115164
1.5935824
1.5571196
2.4487811
3.1236541
3.0803434
2.5477259
1.8154904
1.1159923
0.60843346
0.3066535
0.14657841
0.067057372
0.029268408
0.012034292
0.0045578418
0.0015365602
0.00044912669
0.0001591531
0.00029984252
0.0021416855
0.10804832
0.12503156
0.16272586
0.28196144
0.70895106
1.5052142
2.3635917
2.8706357
2.7560723
2.2052703
1.5888412
1.5532558
2.4434553
3.1144327
3.0693124
2.537201
1.8070802
1.1102636
0.60513322
0.30494985
0.14575798
0.066682021
0.029105063
0.011967411
0.0045326452
0.0015281447
0.00044676308
0.00015854245
0.00029918871
0.0021370208
0.10798177
0.12491265
0.16239021
0.28044778
0.70423467
1.4971579
2.353916
2.8613659
2.7483087
2.1990293
1.5841081
1.5494045
2.4381433
3.1052373
3.0583214
2.526722
1.7987123
1.1045674
0.60185294
0.30325672
0.14494261
0.066308958
0.028942699
0.011900926
0.0045075952
0.0015197773
0.0004444125
0.00015793447
0.00029853595
0.0021323649
0.10791391
0.1247923
0.16205401
0.27894261
0.69954091
1.4891204
2.3442506
2.8521029
2.740549
2.1927935
1.5793831
1.5455654
2.4328446
3.0960674
3.0473702
2.5162893
1.7903876
1.0989048
0.5985936
0.30157483
0.14413274
0.065938428
0.028781438
0.011834891
0.0044827144
0.0015114659
0.00044207727
0.00015732978
0.00029788487
0.0021277222
0.10784473
0.12467049
0.16171719
0.2774458
0.69486961
1.4811014
2.3345955
2.8428464
2.7327932
2.1865627
1.574666
1.5417384
2.4275589
3.086923
3.0364587
2.5059025
1.7821053
1.0932751
0.59535452
0.29990368
0.14332807
0.065570266
0.028621198
0.01176927
0.0044579876
0.001503205
0.00043975571
0.00015672767
0.00029723398
0.002123082
0.10777422
0.12454719
0.16137968
0.27595717
0.6902206
1.4731011
2.3249506
2.8335965
2.7250411
2.180337
1.5699567
1.5379232
2.4222858
3.0778036
3.0255864
2.4955613
1.7738656
1.0876785
0.59213604
0.29824359
0.14252882
0.065204604
0.028462049
0.011704095
0.0044334284
0.0014949998
0.00043744939
0.0001561289
0.00029658502
0.0021184565
0.10770237
0.12442239
0.1610414
0.27447659
0.68559369
1.4651195
2.3153158
2.824353
2.7172927
2.1741163
1.5652553
1.5341197
2.4170252
3.0687093
3.0147534
2.4852652
1.7656674
1.0821138
0.58893711
0.29659382
0.14173454
0.064841192
0.028303867
0.011639311
0.0044090142
0.0014868421
0.00043515598
0.00015553273
0.00029593697
0.0021138388
0.10762918
0.12429605
0.16070227
0.27300392
0.68098873
1.4571565
2.305691
2.8151159
2.709548
2.1679007
1.5605616
1.5303276
2.4117767
3.0596395
3.0039592
2.4750142
1.7575113
1.0765818
0.58575852
0.29495495
0.1409456
0.064480237
0.028146756
0.011574965
0.0043847643
0.0014787388
0.00043287746
0.00015493971
0.00029529039
0.0021092326
0.10755463
0.12416815
0.16036222
0.271539
0.67640556
1.4492121
2.2960763
2.8058851
2.701807
2.1616902
1.5558755
1.5265467
2.40654
3.050594
2.9932035
2.4648079
1.7493965
1.0710817
0.58259954
0.29332645
0.14016167
0.064121567
0.027990631
0.011511017
0.0043606632
0.0014706844
0.00043061213
0.00015434915
0.00029464385
0.0021046278
0.10747871
0.12403867
0.16002119
0.27008173
0.67184404
1.4412865
2.2864715
2.7966606
2.6940695
2.1554849
1.551197
1.5227767
2.4013146
3.0415724
2.9824861
2.4546462
1.7413232
1.0656138
0.5794605
0.29170865
0.13938299
0.06376531
0.027835558
0.011447501
0.0043367238
0.0014626837
0.00042836153
0.00015376181
0.00029399924
0.0021000379
0.10740142
0.12390759
0.15967912
0.26863196
0.66730401
1.4333797
2.2768768
2.7874425
2.6863356
2.1492847
1.546526
1.5190173
2.3961004
3.0325746
2.9718066
2.4445284
1.7332903
1.0601768
0.5763404
0.29010082
0.13860909
0.063411226
0.027681418
0.011384361
0.0043129242
0.0014547289
0.00042612339
0.00015317705
0.00029335573
0.0020954567
0.10732275
0.12377489
0.15933595
0.26718957
0.66278534
1.4254916
2.2672919
2.7782305
2.6786053
2.1430897
1.5418624
1.5152682
2.3908968
3.0236
2.9611648
2.4344547
1.7252986
1.0547719
0.57324018
0.28850365
0.13784043
0.063059549
0.027528327
0.011321652
0.004289286
0.0014468277
0.00042389996
0.00015259545
0.00029271391
0.0020908887
0.10724269
0.12364055
0.1589916
0.26575444
0.65828785
1.4176224
2.257717
2.7690249
2.6708787
2.1369001
1.5372062
1.5115293
2.3857035
3.0146485
2.9505605
2.4244248
1.7173475
1.0493982
0.57015917
0.28691665
0.13707669
0.062710116
0.027376206
0.011259335
0.0042657943
0.0014389747
0.00042168956
0.00015201631
0.00029207225
0.0020863227
0.10716124
0.12350454
0.15864601
0.26432646
0.65381142
1.4097721
2.2481521
2.7598256
2.6631557
2.130716
1.5325573
1.5078001
2.38052
3.0057195
2.9399932
2.4144383
1.7094369
1.044056
0.56709773
0.28534017
0.13631811
0.062363065
0.027225125
0.011197445
0.004242463
0.001431175
0.00041949384
0.00015144043
0.00029143262
0.0020817721
0.1070784
0.12336686
0.15829912
0.2629055
0.64935595
1.4019407
2.238597
2.7506325
2.6554364
2.1245373
1.5279156
1.5040803
2.3753461
2.9968127
2.9294624
2.4044945
1.7015657
1.038744
0.56405477
0.28377342
0.13556421
0.062018135
0.027074956
0.011135923
0.0042192686
0.0014234203
0.00041731034
0.00015086705
0.00029079394
0.0020772292
0.10699415
0.12322749
0.15795086
0.26149149
0.64492129
1.3941285
2.229052
2.7414457
2.6477209
2.1183644
1.5232811
1.5003697
2.3701812
2.9879277
2.9189679
2.3945935
1.6937347
1.0334631
0.56103112
0.28221702
0.13481539
0.061675549
0.02692581
0.01107482
0.0041962316
0.0014157179
0.00041514121
0.00015029676
0.00029015684
0.0020726985
0.10690849
0.1230864
0.15760118
0.2600843
0.64050735
1.3863355
2.219517
2.7322654
2.6400094
2.1121974
1.5186537
1.4966679
2.3650249
2.9790641
2.9085093
2.3847347
1.6859427
1.0282124
0.55802598
0.28067043
0.13407131
0.061335125
0.026777598
0.011014095
0.0041733358
0.0014080619
0.00041298466
0.0001497288
0.0002895197
0.0020681685
0.10682143
0.1229436
0.15725003
0.25868388
0.63611404
1.3785617
2.2099921
2.7230915
2.6323019
2.1060363
1.5140333
1.4929745
2.3598767
2.9702213
2.8980859
2.3749178
1.6781899
1.0229921
0.55503973
0.27913397
0.13333222
0.060997002
0.026630392
0.010953784
0.0041505957
0.0014004578
0.0004108424
0.00014916404
0.0002888846
0.0020636539
0.10673297
0.12279905
0.15689735
0.25729013
0.63174127
1.3708075
2.2004774
2.7139241
2.6245986
2.0998815
1.5094198
1.4892893
2.3547364
2.9613992
2.8876975
2.3651418
1.6704751
1.0178009
0.5520712
0.27760683
0.1325976
0.060660908
0.026484059
0.010893825
0.0041279866
0.0013928967
0.00040871185
0.0001486017
0.00028825044
0.0020591468
0.1066431
0.12265277
0.15654312
0.25590296
0.62738894
1.3630728
2.1909729
2.7047634
2.6168996
2.0937331
1.5048132
1.4856118
2.3496034
2.9525971
2.8773436
2.3554071
1.6627989
1.0126397
0.54912135
0.27608971
0.1318679
0.060327087
0.026338719
0.010834274
0.0041055311
0.0013853867
0.00040659537
0.00014804242
0.00028761799
0.0020546527
0.10655182
0.12250472
0.15618727
0.25452233
0.62305698
1.3553578
2.1814787
2.6956095
2.6092051
2.0875912
1.5002133
1.4819416
2.3444773
2.9438145
2.8670236
2.3457128
1.6551606
1.0075077
0.54618943
0.27458209
0.13114281
0.059995363
0.026194287
0.010775091
0.0040832129
0.0013779219
0.00040449114
0.00014748545
0.00028698559
0.0020501597
0.10645914
0.12235492
0.15582976
0.25314816
0.61874531
1.3476628
2.171995
2.6864623
2.6015153
2.0814562
1.4956201
1.4782785
2.3393575
2.9350507
2.8567369
2.3360587
1.64756
1.0024051
0.54327578
0.2730843
0.13042255
0.059665881
0.026050836
0.010716312
0.0040610471
0.0013705079
0.00040240094
0.00014693163
0.00028635528
0.0020456824
0.10636507
0.12220335
0.15547054
0.25178039
0.61445388
1.3399878
2.1625219
2.6773222
2.5938305
2.0753284
1.4910335
1.4746219
2.3342436
2.9263056
2.8464832
2.3264437
1.6399959
0.99733048
0.54037923
0.27159551
0.12970662
0.059338362
0.02590823
0.010657874
0.0040390083
0.0013631356
0.00040032211
0.00014638017
0.00028572592
0.0020412127
0.10626961
0.12205001
0.15510958
0.25041899
0.61018264
1.3323332
2.1530594
2.6681891
2.5861508
2.069208
1.4864533
1.4709716
2.329135
2.9175784
2.8362617
2.316868
1.6324689
0.99228476
0.53750065
0.27011639
0.12899545
0.059013043
0.025766587
0.010599832
0.0040171186
0.0013558131
0.00039825699
0.00014583171
0.0002850983
0.0020367561
0.10617277
0.1218949
0.15474685
0.24906391
0.60593159
1.324699
2.1436077
2.6590634
2.5784765
2.0630953
1.4818793
1.467327
2.3240315
2.9088686
2.8260719
2.3073305
1.6249778
0.98726694
0.53463924
0.26864637
0.12828869
0.058689737
0.025625815
0.010542144
0.0039953611
0.0013485341
0.00039620367
0.00014528543
0.00028447059
0.0020322995
0.10607457
0.12173801
0.15438231
0.24771512
0.60170067
1.3170856
2.1341671
2.6499452
2.570808
2.0569907
1.4773115
1.463688
2.3189324
2.9001754
2.8159131
2.2978308
1.6175226
0.98227716
0.5317953
0.26718575
0.12758656
0.058368578
0.025485985
0.010484844
0.0039737501
0.0013413041
0.00039416389
0.0001447422
0.00028384491
0.0020278581
0.105975
0.12157934
0.15401595
0.24637261
0.59748988
1.3094931
2.1247376
2.6408346
2.5631453
2.0508944
1.4727495
1.460054
2.3138373
2.8914985
2.8057846
2.288368
1.6101019
0.97731392
0.52896756
0.26573365
0.12688853
0.058049276
0.025346953
0.010427867
0.0039522593
0.0013341136
0.00039213488
0.00014420121
0.00028322015
0.0020234241
0.10587409
0.12141891
0.15364775
0.24503635
0.59329922
1.3019219
2.1153194
2.6317318
2.555489
2.0448069
1.4681933
1.4564248
2.3087458
2.882837
2.7956857
2.2789418
1.6027162
0.97237815
0.52615693
0.26429077
0.12619504
0.057732077
0.025208844
0.01037127
0.0039309118
0.0013269709
0.0003901191
0.00014366315
0.00028259717
0.0020190033
0.10577185
0.12125672
0.15327769
0.24370633
0.58912866
1.2943722
2.1059127
2.6226371
2.5478392
2.0387285
1.4636424
1.4528
2.3036572
2.8741904
2.7856157
2.2695514
1.5953645
0.96746887
0.52336264
0.26285656
0.12550576
0.057416805
0.025071569
0.010315011
0.0039096911
0.0013198702
0.00038811468
0.00014312723
0.00028197423
0.0020145834
0.1056683
0.12109277
0.15290574
0.24238256
0.58497822
1.2868443
2.0965176
2.6135506
2.5401963
2.0326596
1.4590966
1.4491793
2.2985709
2.8655578
2.7755738
2.2601962
1.5880467
0.96258622
0.52058501
0.26143135
0.12482092
0.057103598
0.024935202
0.010259127
0.003888612
0.0013128167
0.0003861234
0.0001425943
0.00028135335
0.0020101789
0.10556346
0.12092708
0.15253189
0.24106504
0.58084792
1.2793385
2.0871343
2.6044726
2.5325607
2.0266008
1.4545555
1.4455625
2.2934866
2.8569386
2.7655592
2.2508751
1.5807613
0.9577287
0.5178228
0.26001426
0.12414
0.056792168
0.024799601
0.010203553
0.0038676485
0.0013058014
0.00038414252
0.00014206352
0.00028073333
0.0020057812
0.10545735
0.12075965
0.15215615
0.23975377
0.5767378
1.2718552
2.0777631
2.5954033
2.5249325
2.0205525
1.4500186
1.4419495
2.2884035
2.8483318
2.7555709
2.2415877
1.5735086
0.95289706
0.51507679
0.25860592
0.1234634
0.05648274
0.02466488
0.010148342
0.003846822
0.0012988318
0.00038217432
0.00014153556
0.00028011501
0.0020013962
0.10534999
0.1205905
0.15177851
0.23844879
0.57264789
1.2643946
2.0684042
2.586343
2.5173123
2.0145152
1.4454854
1.4383402
2.2833212
2.8397368
2.7456082
2.232333
1.5662875
0.94809025
0.51234616
0.25720576
0.12279077
0.056175137
0.02453095
0.010093453
0.0038261166
0.0012919023
0.00038021702