/*--------------------------------*- C++ -*----------------------------------*\
| =========                 |                                                 |
| \\      /  F ield         | OpenFOAM: The Open Source CFD Toolbox           |
|  \\    /   O peration     | Version:  v2012                                 |
|   \\  /    A nd           | Website:  www.openfoam.com                      |
|    \\/     M anipulation  |                                                 |
\*---------------------------------------------------------------------------*/
FoamFile
{
    version     2.0;
    format      ascii;
    class       volScalarField;
    location    "600";
    object      Ma;
}
// * * * * * * * * * * * * * * * * * * * * * * * * * * * * * * * * * * * * * //

dimensions      [0 0 0 0 0 0 0];


internalField   nonuniform List<scalar> 
24000
(
0.044320581
0.044630527
0.045555489
0.046941393
0.047635483
0.04686339
0.04531235
0.043694244
0.042081187
0.040371265
0.038233072
0.035147576
0.031364626
0.027524439
0.023725162
0.020077376
0.016769438
0.013858193
0.011344632
0.0092111624
0.0074207651
0.005925013
0.004676932
0.0036356366
0.0027667831
0.0020417721
0.0014368083
0.00093206609
0.00051101142
0.00015984515
0.044301846
0.044612658
0.045540244
0.0469319
0.047634352
0.046865444
0.045309723
0.043684721
0.042065161
0.040350534
0.038209606
0.035123667
0.031341582
0.027501258
0.023701832
0.020055056
0.016748409
0.013838513
0.011326462
0.0091947251
0.0074062786
0.0059126322
0.0046666976
0.0036274601
0.0027604752
0.0020370896
0.0014334975
0.00092989732
0.00050979789
0.00015945145
0.044284631
0.044593631
0.045514939
0.046898916
0.047605527
0.046841834
0.045286131
0.043659513
0.042039051
0.040324648
0.038184266
0.035099428
0.031319477
0.02748065
0.023682799
0.020038779
0.016735419
0.013828817
0.011319793
0.0091905772
0.0074039858
0.0059115608
0.0046663457
0.0036274799
0.0027606518
0.0020373059
0.0014336962
0.00093005421
0.00050990156
0.00015949159
0.044266491
0.044574132
0.045491538
0.046872674
0.047585143
0.046825855
0.04526855
0.043638571
0.042015377
0.040299208
0.038157734
0.03507294
0.031294491
0.027456973
0.023660788
0.020019735
0.016719656
0.013816111
0.011309774
0.009182815
0.0073980376
0.00590705
0.0046629692
0.0036249938
0.0027588595
0.00203605
0.001432852
0.00092952615
0.0005096187
0.00015940412
0.044248103
0.044554391
0.045468118
0.046846732
0.047564934
0.046809843
0.045250842
0.043617248
0.041991147
0.040273006
0.038130226
0.035045195
0.031268015
0.027431783
0.023637269
0.019999186
0.01670243
0.013802019
0.011298492
0.0091739315
0.0073910993
0.0059016591
0.0046588073
0.0036218127
0.0027564684
0.0020343013
0.0014316289
0.00092873604
0.00050918665
0.00015926925
0.044229534
0.044534599
0.045445029
0.046821549
0.047545566
0.046794673
0.045233761
0.043596317
0.04196714
0.040246809
0.038102468
0.035016899
0.03124074
0.027405676
0.023612757
0.01997761
0.016684191
0.013786981
0.011286368
0.0091643348
0.0073835854
0.0058958259
0.00465432
0.0036184039
0.0027539255
0.0020324567
0.001430349
0.00092791463
0.0005087397
0.00015913024
0.044210881
0.04451481
0.045422145
0.046796691
0.047526524
0.046779865
0.045216945
0.043575557
0.041943212
0.040220545
0.038074462
0.034988169
0.031212867
0.027378876
0.0235875
0.019955268
0.016665199
0.01377124
0.011273597
0.0091541565
0.0073755579
0.005889545
0.0046494492
0.0036146743
0.0027511224
0.0020304088
0.0014289194
0.00092699262
0.00050823613
0.00015897316
0.044192192
0.044495054
0.0453994
0.046772069
0.047507703
0.046765325
0.045200304
0.043554895
0.041919353
0.040194264
0.038046302
0.034959171
0.031184611
0.027351635
0.023561761
0.019932431
0.016645725
0.013755053
0.011260427
0.0091436313
0.0073672392
0.0058830245
0.0046443859
0.0036107937
0.002748204
0.0020282758
0.0014274299
0.00092603185
0.00050771146
0.00015880947
0.044173496
0.044475337
0.045376761
0.04674756
0.047488992
0.046750943
0.045183807
0.043534296
0.041895518
0.040167964
0.038018052
0.034929982
0.03115608
0.027324087
0.023535701
0.019909252
0.01662592
0.013738553
0.011246976
0.0091328576
0.0073587056
0.005876322
0.0046391714
0.0036067903
0.0027451887
0.002026069
0.0014258872
0.00092503596
0.00050716725
0.00015863962
0.044154805
0.044455659
0.045354207
0.046723147
0.047470358
0.046736681
0.045167382
0.043513796
0.041871696
0.040141653
0.037989749
0.034900666
0.031127358
0.027296324
0.023509418
0.019885845
0.016605891
0.013721839
0.011233332
0.0091219147
0.0073500256
0.0058694963
0.0046338556
0.0036027056
0.00274211
0.0020238143
0.0014243103
0.00092401754
0.00050661064
0.00015846584
0.044136127
0.044436015
0.04533173
0.04669878
0.047451753
0.046722497
0.045151052
0.043493323
0.041847887
0.040115335
0.037961409
0.034871258
0.0310985
0.027268418
0.023482979
0.019862279
0.016585709
0.01370498
0.011219555
0.0091108543
0.007341245
0.005862585
0.0046284686
0.0035985632
0.0027389862
0.0020215254
0.0014227088
0.0009229829
0.00050604504
0.00015828922
0.044117462
0.0444164
0.045309317
0.04667444
0.047433169
0.046708367
0.045134759
0.043472882
0.041824109
0.040089016
0.037933042
0.034841791
0.031069545
0.027240406
0.023456432
0.019838611
0.016565422
0.01368802
0.011205685
0.0090997129
0.0073323926
0.0058556121
0.0046230308
0.0035943786
0.002735829
0.0020192114
0.0014210889
0.00092193614
0.0005054727
0.00015811047
0.044098811
0.044396807
0.04528696
0.046650135
0.047414591
0.046694288
0.045118546
0.043452515
0.04180036
0.0400627
0.037904662
0.034812274
0.031040535
0.027212321
0.023429814
0.019814874
0.016545066
0.013670995
0.011191756
0.0090885188
0.0073234934
0.0058485991
0.0046175596
0.0035901673
0.0027326505
0.0020168813
0.0014194574
0.0009208817
0.00050489609
0.00015793036
0.04408017
0.044377235
0.045264621
0.046625825
0.047396004
0.046680242
0.045102358
0.043432164
0.041776627
0.04003639
0.037876273
0.034782719
0.03101148
0.027184197
0.023403155
0.01979109
0.016524663
0.013653931
0.011177785
0.0090772861
0.0073145597
0.0058415563
0.0046120633
0.0035859359
0.0027294557
0.0020145388
0.0014178169
0.00091982147
0.00050431619
0.00015774922
0.044061539
0.044357679
0.045242307
0.046601546
0.047377418
0.046666236
0.045086246
0.043411843
0.041752908
0.04001009
0.037847876
0.034753137
0.030982388
0.027156037
0.023376476
0.01976728
0.016504233
0.013636842
0.011163791
0.0090660299
0.0073056048
0.0058344948
0.0046065512
0.0035816915
0.0027262505
0.0020121887
0.001416171
0.00091875751
0.00050373417
0.0001575674
0.044042915
0.044338137
0.045220025
0.04657725
0.047358811
0.046652258
0.045070154
0.043391591
0.041729207
0.0399838
0.037819477
0.034723535
0.03095327
0.027127859
0.02334978
0.019743458
0.016483794
0.013619738
0.011149784
0.0090547576
0.0072966347
0.00582742
0.004601027
0.0035774362
0.0027230365
0.0020098316
0.0014145201
0.00091769018
0.00050315024
0.00015738498
0.044024297
0.0443186
0.045197781
0.046552954
0.047340199
0.046638305
0.04505414
0.043371355
0.041705527
0.039957522
0.037791077
0.034693926
0.030924133
0.02709967
0.023323077
0.019719632
0.016463353
0.01360263
0.011135773
0.0090434808
0.0072876606
0.0058203409
0.0045954985
0.0035731776
0.0027198195
0.0020074721
0.0014128674
0.00091662173
0.00050256562
0.00015720233
0.044005681
0.044299071
0.04517557
0.046528671
0.047321563
0.046624379
0.045038142
0.043351153
0.041681894
0.039931259
0.037762681
0.034664313
0.030894986
0.027071473
0.023296374
0.019695817
0.016442916
0.013585522
0.011121762
0.0090322026
0.0072786829
0.0058132578
0.004589966
0.0035689155
0.0027165997
0.0020051102
0.001411213
0.00091555208
0.00050198034
0.00015701947
0.043987068
0.044279549
0.045153393
0.046504366
0.047302913
0.046610476
0.045022224
0.043331016
0.041658283
0.039905011
0.037734289
0.034634699
0.03086585
0.027043283
0.02326968
0.019672012
0.016422488
0.013568423
0.011107756
0.0090209289
0.0072697076
0.0058061759
0.0045844341
0.0035646536
0.0027133802
0.0020027482
0.0014095586
0.0009144823
0.00050139498
0.00015683661
0.043968455
0.044260033
0.045131222
0.046480088
0.047284248
0.046596602
0.045006322
0.043310897
0.041634691
0.039878778
0.037705905
0.03460508
0.030836709
0.027015097
0.023243011
0.019648219
0.016402072
0.013551333
0.011093758
0.0090096592
0.0072607343
0.0057990939
0.0045789012
0.0035603903
0.0027101591
0.0020003848
0.001407903
0.00091341174
0.00050080924
0.0001566536
0.043949842
0.044240522
0.04510906
0.046455774
0.047265558
0.046582747
0.0449905
0.04329082
0.041611121
0.039852565
0.037677529
0.034575458
0.030807565
0.02698692
0.023216354
0.019624448
0.016381673
0.013534263
0.011079771
0.0089984019
0.0072517699
0.0057920184
0.0045733727
0.0035561303
0.0027069406
0.0019980232
0.0014062486
0.00091234196
0.00050022394
0.00015647074
0.043931228
0.044221011
0.045086924
0.046431471
0.047246859
0.046568913
0.044974695
0.043270802
0.041587572
0.039826369
0.03764916
0.034545834
0.03077842
0.026958753
0.023189713
0.019600695
0.016361295
0.01351721
0.011065797
0.0089871526
0.007242811
0.0057849466
0.0045678471
0.0035518716
0.0027037232
0.0019956621
0.0014045946
0.00091127236
0.00049963878
0.0001562879
0.043912611
0.044201499
0.045064819
0.046407173
0.04722813
0.046555104
0.044958971
0.043250803
0.041564063
0.039800191
0.0376208
0.034516215
0.030749276
0.026930594
0.02316309
0.019576967
0.01634094
0.013500176
0.011051841
0.0089759159
0.0072338617
0.0057778822
0.0045623274
0.0035476172
0.002700509
0.0019933034
0.0014029421
0.00091020375
0.00049905417
0.00015610523
0.043893991
0.04418199
0.045042742
0.046382848
0.04720939
0.046541316
0.044943266
0.043230857
0.041540591
0.039774031
0.037592449
0.034486601
0.030720148
0.026902453
0.023136487
0.019553267
0.01632061
0.013483161
0.011037903
0.0089646902
0.0072249199
0.0057708224
0.0045568106
0.0035433648
0.0026972955
0.0019909453
0.0014012896
0.00090913513
0.00049846953
0.00015592255
0.043875368
0.044162482
0.045020693
0.046358553
0.047190625
0.046527551
0.044927639
0.043210962
0.041517142
0.03974789
0.037564108
0.034457
0.030691034
0.02687433
0.023109922
0.019529594
0.016300306
0.01346617
0.011023985
0.0089534813
0.0072159915
0.0057637735
0.0045513023
0.0035391194
0.0026940871
0.001988591
0.0013996399
0.00090806823
0.00049788583
0.00015574015
0.043856742
0.044142977
0.044998658
0.046334219
0.047171839
0.046513804
0.044912035
0.043191086
0.041493716
0.039721768
0.03753578
0.034427402
0.030661924
0.026846222
0.02308338
0.019505946
0.016280026
0.013449199
0.011010085
0.0089422854
0.0072070739
0.0057567324
0.0045457993
0.0035348776
0.0026908814
0.0019862387
0.0013979915
0.00090700228
0.00049730258
0.0001555579
0.043838113
0.044123475
0.044976626
0.0463099
0.04715304
0.046500074
0.044896508
0.043171275
0.041470312
0.039695664
0.037507466
0.034397806
0.030632818
0.026818132
0.023056861
0.01948233
0.016259772
0.013432251
0.010996204
0.0089311071
0.007198169
0.0057497017
0.0045403045
0.0035306419
0.0026876802
0.0019838899
0.0013963456
0.00090593792
0.00049672015
0.00015537591
0.043819481
0.044103975
0.044954615
0.046285587
0.04713421
0.046486374
0.044881008
0.043151506
0.041446938
0.03966958
0.037479161
0.034368213
0.030603719
0.026790056
0.023030365
0.019458739
0.016239544
0.013415329
0.01098234
0.0089199418
0.0071892732
0.0057426772
0.0045348137
0.003526409
0.0026844805
0.001981542
0.0013947003
0.00090487382
0.00049613783
0.00015519394
0.043800845
0.044084477
0.044932633
0.046261245
0.047115371
0.046472687
0.04486558
0.043131756
0.041423615
0.039643514
0.037450867
0.034338625
0.030574626
0.026761998
0.023003893
0.019435182
0.016219349
0.013398437
0.0109685
0.0089087963
0.0071803927
0.0057356649
0.0045293324
0.0035221837
0.0026812867
0.0019791983
0.001393058
0.00090381174
0.00049555655
0.0001550123
0.043782205
0.044064981
0.04491068
0.04623694
0.047096501
0.046459023
0.044850185
0.043112084
0.041400314
0.039617468
0.037422583
0.034309046
0.03054556
0.026733963
0.022977457
0.019411656
0.016199183
0.013381568
0.010954679
0.008897667
0.0071715247
0.0057286606
0.0045238571
0.0035179628
0.0026780964
0.0019768568
0.0013914174
0.00090275064
0.00049497583
0.00015483083
0.043763561
0.044045486
0.044888755
0.046212592
0.047077615
0.046445373
0.044834857
0.043092441
0.041377037
0.039591441
0.037394309
0.034279476
0.0305165
0.026705944
0.022951052
0.019388159
0.016179045
0.013364724
0.010940881
0.0088865555
0.0071626711
0.0057216682
0.0045183905
0.0035137486
0.0026749113
0.0019745191
0.0013897794
0.00090169127
0.00049439604
0.00015464967
0.043744913
0.04402599
0.044866855
0.046188263
0.047058708
0.046431743
0.044819568
0.043072823
0.041353782
0.039565432
0.037366046
0.034249916
0.030487447
0.026677946
0.02292467
0.019364691
0.016158934
0.013347903
0.010927105
0.0088754578
0.0071538274
0.0057146826
0.0045129283
0.0035095371
0.0026717278
0.0019721822
0.0013881419
0.00090063211
0.0004938164
0.00015446854
0.04372626
0.044006496
0.04484495
0.046163942
0.047039774
0.046418138
0.04480434
0.043053288
0.041330555
0.039539443
0.037337796
0.034220359
0.0304584
0.026649963
0.022898314
0.019341255
0.016138852
0.013331109
0.010913353
0.0088643802
0.0071450001
0.0057077105
0.0045074778
0.0035053341
0.0026685511
0.0019698502
0.0013865078
0.00089957519
0.00049323803
0.00015428781
0.043707603
0.043987003
0.044823061
0.046139589
0.04702083
0.046404543
0.044789161
0.043033773
0.041307379
0.039513474
0.037309558
0.034190805
0.030429359
0.026621995
0.022871983
0.019317848
0.016118796
0.013314338
0.01089962
0.0088533175
0.0071361842
0.0057007468
0.0045020337
0.0035011358
0.002665378
0.0019675209
0.0013848755
0.00089851946
0.00049266036
0.0001541073
0.043688941
0.043967511
0.044801201
0.046115281
0.047001852
0.046390969
0.044774036
0.043014302
0.041284231
0.039487524
0.03728133
0.034161255
0.030400335
0.026594054
0.022845681
0.019294475
0.016098773
0.013297594
0.01088591
0.0088422735
0.0071273835
0.005693795
0.004496599
0.0034969453
0.0026622106
0.001965196
0.0013832463
0.00089746572
0.00049208381
0.00015392713
0.043670274
0.04394802
0.04477937
0.046090928
0.04698286
0.046377429
0.044758969
0.042994897
0.041261106
0.039461594
0.037253113
0.034131714
0.030371329
0.026566128
0.022819416
0.019271131
0.016078778
0.013280879
0.010872217
0.0088312437
0.0071185923
0.0056868494
0.0044911679
0.0034927572
0.0026590443
0.0019628718
0.0013816172
0.00089641202
0.00049150725
0.00015374695
0.043651602
0.043928524
0.044757566
0.046066597
0.04696384
0.046363912
0.044743948
0.042975512
0.041238005
0.039435682
0.037224906
0.034102178
0.03034233
0.026538225
0.022793176
0.019247818
0.016058815
0.01326419
0.010858547
0.0088202334
0.0071098172
0.0056799177
0.0044857477
0.0034885775
0.0026558844
0.0019605524
0.0013799916
0.00089536053
0.0004909319
0.00015356714
0.043632926
0.043909027
0.044735789
0.046042283
0.046944794
0.046350427
0.044728994
0.042956191
0.04121493
0.039409792
0.037196709
0.034072657
0.030313336
0.026510337
0.022766961
0.019224534
0.016038879
0.013247524
0.010844896
0.0088092381
0.0071010523
0.0056729933
0.0044803329
0.0034844015
0.0026527272
0.001958235
0.0013783672
0.0008943099
0.000490357
0.00015338748
0.043614241
0.04388953
0.044714026
0.046017931
0.046925732
0.046336966
0.044714079
0.042936918
0.041191907
0.039383923
0.037168524
0.03404314
0.03028435
0.026482464
0.022740771
0.019201283
0.016018971
0.013230884
0.01083127
0.0087982625
0.0070923025
0.0056660807
0.0044749273
0.003480233
0.0026495754
0.0019559218
0.0013767459
0.00089326128
0.00048978312
0.00015320814
0.043595549
0.043870034
0.044692261
0.045993626
0.046906634
0.046323532
0.044699236
0.042917667
0.041168914
0.039358073
0.037140355
0.034013625
0.03025537
0.026454614
0.022714606
0.019178059
0.015999089
0.013214267
0.010817665
0.0087873005
0.0070835633
0.0056591738
0.0044695253
0.0034760665
0.0026464246
0.0019536089
0.0013751247
0.00089221257
0.00048920915
0.00015302877
0.043576852
0.043850538
0.044670521
0.045969291
0.046887523
0.046310133
0.044684431
0.042898499
0.041145945
0.039332244
0.037112196
0.033984114
0.030226415
0.026426784
0.022688481
0.019154872
0.015979239
0.013197678
0.010804085
0.00877636
0.0070748421
0.0056522823
0.0044641353
0.0034719097
0.0026432815
0.0019513016
0.0013735076
0.00089116656
0.00048863661
0.00015284984
0.043558149
0.043831043
0.044648811
0.045944968
0.04686838
0.046296751
0.0446697
0.042879359
0.041123
0.039306434
0.037084047
0.033954609
0.030197469
0.026398974
0.022662384
0.019131715
0.01595942
0.013181113
0.010790524
0.0087654341
0.0070661318
0.0056453993
0.0044587512
0.0034677572
0.0026401419
0.0019489966
0.0013718921
0.00089012158
0.00048806464
0.00015267109
0.043539441
0.043811539
0.044627128
0.045920677
0.046849214
0.046283398
0.044655003
0.04286026
0.041100083
0.039280643
0.037055908
0.033925111
0.03016853
0.026371182
0.022636312
0.019108588
0.015939632
0.013164579
0.010776986
0.008754527
0.0070574369
0.0056385287
0.0044533771
0.0034636127
0.0026370084
0.0019466962
0.00137028
0.00088907877
0.00048749386
0.00015249272
0.043520728
0.043792034
0.044605473
0.045896341
0.046830028
0.046270081
0.044640384
0.042841233
0.041077217
0.039254876
0.037027779
0.033895622
0.030139596
0.026343404
0.022610264
0.01908549
0.015919872
0.013148069
0.010763465
0.0087436332
0.0070487506
0.0056316635
0.0044480072
0.0034594698
0.0026338757
0.0019443961
0.0013686678
0.00088803583
0.00048692299
0.00015231432
0.043502009
0.043772528
0.044583845
0.045872048
0.046810806
0.046256777
0.044625798
0.042822227
0.041054381
0.039229129
0.036999661
0.033866143
0.030110669
0.026315645
0.022584242
0.019062426
0.015900141
0.013131588
0.01074997
0.0087327614
0.0070400825
0.0056248126
0.0044426489
0.0034553362
0.0026307504
0.0019421013
0.0013670594
0.00088699541
0.00048635357
0.00015213636
0.043483284
0.043753021
0.044562221
0.045847744
0.04679157
0.046243504
0.04461129
0.04280329
0.04103157
0.039203402
0.036971554
0.033836665
0.030081755
0.026287911
0.022558252
0.019039389
0.015880438
0.013115129
0.010736493
0.0087219036
0.0070314248
0.0056179689
0.0044372957
0.0034512062
0.0026276278
0.0019398083
0.0013654523
0.00088595581
0.00048578463
0.00015195857
0.043464554
0.043733515
0.044540602
0.045823434
0.0467723
0.046230259
0.044596824
0.042784399
0.041008784
0.039177695
0.036943459
0.033807191
0.030052862
0.026260193
0.022532297
0.019016387
0.015860763
0.013098696
0.01072304
0.0087110646
0.0070227819
0.0056111382
0.0044319519
0.0034470842
0.0026245108
0.0019375196
0.0013638482
0.00088491813
0.00048521679
0.00015178112
0.043445818
0.043714008
0.044519013
0.045799174
0.046753008
0.046217031
0.044582421
0.042765537
0.040986028
0.039152007
0.036915375
0.033777718
0.030023974
0.026232495
0.022506366
0.018993415
0.015841115
0.013082285
0.010709607
0.0087002401
0.0070141472
0.0056043126
0.0044266111
0.0034429634
0.002621394
0.001935231
0.0013622437
0.00088388009
0.00048464872
0.00015160357
0.043427076
0.043694501
0.044497452
0.045774862
0.046733692
0.046203836
0.044568077
0.042746759
0.040963324
0.039126338
0.0368873
0.033748256
0.029995092
0.026204813
0.022480462
0.018970473
0.015821502
0.013065903
0.0106962
0.008689437
0.007005531
0.0055975018
0.0044212826
0.0034388522
0.0026182847
0.001932948
0.0013606431
0.00088284465
0.00048408208
0.00015142648
0.043408328
0.043674994
0.044475919
0.045750588
0.046714342
0.04619066
0.044553782
0.042728005
0.040940649
0.039100689
0.036859234
0.033718796
0.029966216
0.026177145
0.022454581
0.018947562
0.015801918
0.013049545
0.010682811
0.008678648
0.0069969266
0.0055906988
0.0044159599
0.0034347452
0.0026151785
0.0019306673
0.0013590441
0.00088181023
0.00048351601
0.00015124957
0.043389575
0.043655486
0.044454413
0.045726332
0.046694975
0.046177503
0.044539556
0.04270931
0.040917997
0.039075059
0.036831178
0.03368935
0.029937345
0.026149501
0.022428726
0.018924681
0.015782363
0.013033219
0.010669445
0.0086678778
0.0069883374
0.005583908
0.0044106469
0.0034306465
0.0026120782
0.0019283912
0.0013574484
0.00088077796
0.00048295108
0.00015107301
0.043370815
0.043635976
0.044432934
0.045702042
0.046675572
0.046164377
0.044525373
0.042690672
0.040895371
0.039049448
0.036803131
0.033659905
0.029908493
0.026121873
0.022402907
0.018901828
0.015762834
0.013016914
0.010656097
0.0086571201
0.0069797567
0.0055771233
0.0044053369
0.0034265493
0.0026089786
0.0019261153
0.0013558528
0.00087974563
0.00048238603
0.00015089641
0.043352049
0.043616465
0.044411459
0.045677802
0.046656147
0.046151267
0.044511261
0.042672061
0.040872779
0.039023857
0.036775098
0.033630462
0.029879653
0.026094265
0.022377116
0.018879009
0.015743334
0.013000637
0.010642773
0.0086463833
0.0069711932
0.0055703528
0.0044000385
0.0034224613
0.0026058864
0.0019238448
0.001354261
0.00087871583
0.00048182236
0.00015072024
0.043333276
0.043596953
0.04438999
0.045653542
0.046636693
0.046138175
0.04449719
0.042653533
0.040850239
0.038998284
0.036747076
0.03360102
0.029850818
0.026066673
0.02235135
0.01885622
0.01572386
0.012984383
0.010629467
0.0086356612
0.0069626394
0.0055635893
0.0043947451
0.0034183769
0.0026027971
0.0019215761
0.0013526705
0.00087768691
0.00048125912
0.00015054422
0.043314498
0.043577441
0.044368552
0.045629289
0.046617207
0.046125114
0.044483195
0.042635035
0.040827724
0.03897273
0.036719063
0.033571583
0.029821988
0.026039095
0.022325607
0.018833459
0.015704416
0.012968153
0.010616183
0.0086249568
0.0069541006
0.0055568373
0.0043894614
0.0034142996
0.0025997132
0.0019193114
0.001351083
0.00087665986
0.00048069691
0.00015036851
0.043295713
0.043557928
0.044347142
0.045605089
0.046597701
0.046112065
0.044469246
0.042616591
0.040805232
0.038947196
0.036691059
0.033542151
0.029793161
0.026011533
0.022299887
0.018810727
0.015685
0.012951945
0.010602918
0.0086142647
0.0069455703
0.0055500902
0.0043841807
0.0034102235
0.0025966297
0.0019170466
0.0013494953
0.00087563254
0.00048013452
0.00015019273
0.043276922
0.043538415
0.04432576
0.04558083
0.046578158
0.046099034
0.044455359
0.042598211
0.040782766
0.03892168
0.036663063
0.033512728
0.029764341
0.025983993
0.022274197
0.018788028
0.015665617
0.012935765
0.01058968
0.0086035955
0.0069370573
0.0055433573
0.0043789115
0.0034061565
0.0025935536
0.0019147871
0.0013479112
0.00087460763
0.00047957344
0.00015001737
0.043258125
0.043518896
0.044304405
0.045556616
0.046558594
0.046086031
0.044441535
0.042579857
0.040760347
0.038896185
0.036635076
0.03348331
0.029735543
0.025956469
0.022248541
0.018765355
0.015646261
0.01291961
0.01057646
0.0085929408
0.0069285551
0.0055366336
0.0043736481
0.0034020938
0.0025904805
0.0019125298
0.0013463287
0.00087358374
0.00047901299
0.00014984222
0.043239321
0.043499376
0.044283076
0.045532423
0.046538994
0.046073037
0.044427761
0.042561586
0.040737967
0.03887071
0.036607098
0.033453893
0.029706751
0.025928964
0.02222291
0.018742713
0.015626932
0.012903485
0.010563263
0.0085823044
0.0069200677
0.0055299218
0.0043683945
0.0033980393
0.0025874133
0.0019102769
0.0013447493
0.00087256188
0.00047845369
0.00014966743
0.043220511
0.043479853
0.044261762
0.045508196
0.046519363
0.046060059
0.044414054
0.042543344
0.04071561
0.038845253
0.036579131
0.033424476
0.029677961
0.02590147
0.022197301
0.018720102
0.015607627
0.012887381
0.010550082
0.0085716801
0.0069115902
0.0055232152
0.0043631444
0.0033939866
0.0025843469
0.0019080245
0.0013431699
0.00087153996
0.00047789437
0.00014949262
0.043201695
0.04346033
0.044240447
0.04548402
0.046499707
0.046047107
0.044400393
0.042525162
0.040693277
0.038819815
0.036551174
0.03339506
0.029649175
0.02587399
0.022171716
0.018697519
0.015588352
0.012871303
0.010536925
0.0085610756
0.006903129
0.0055165221
0.0043579052
0.0033899425
0.0025812873
0.0019057773
0.0013415942
0.00087052038
0.00047733635
0.00014931821
0.043182873
0.043440807
0.044219162
0.045459837
0.046480016
0.046034163
0.044386804
0.042507039
0.040670976
0.038794396
0.036523225
0.033365652
0.029620393
0.025846531
0.022146154
0.018674964
0.015569103
0.012855247
0.010523785
0.0085504843
0.0068946776
0.0055098361
0.0043526711
0.0033859021
0.0025782302
0.0019035319
0.0013400197
0.00086950162
0.00047677878
0.00014914394
0.043164044
0.043421283
0.044197907
0.045435653
0.046460301
0.046021231
0.044373265
0.042488948
0.040648727
0.038769
0.036495284
0.033336247
0.029591622
0.025819088
0.022120626
0.018652441
0.015549886
0.012839216
0.010510667
0.0085399115
0.0068862402
0.005503162
0.0043474457
0.0033818689
0.0025751783
0.0019012905
0.0013384478
0.00086848459
0.00047622215
0.00014896996
0.043145209
0.043401759
0.04417668
0.045411521
0.046440549
0.046008324
0.04435979
0.042470939
0.040626505
0.038743623
0.036467352
0.033306852
0.029562868
0.025791665
0.022095127
0.018629944
0.015530697
0.012823207
0.010497568
0.0085293519
0.0068778112
0.0054964929
0.0043422231
0.003377837
0.0025721269
0.0018990492
0.0013368758
0.00086746733
0.00047566536
0.00014879593
0.043126369
0.043382233
0.044155482
0.04538735
0.046420765
0.045995421
0.044346376
0.042452956
0.040604306
0.038718264
0.036439428
0.033277458
0.029534118
0.025764255
0.022069652
0.018607478
0.015511538
0.012807226
0.010484494
0.0085188131
0.0068693999
0.0054898381
0.004337012
0.0033738143
0.0025690825
0.0018968131
0.0013353077
0.00086645262
0.00047510988
0.0001486223
0.04310752
0.0433627
0.044134311
0.045363207
0.04640095
0.045982526
0.044333014
0.042435043
0.040582131
0.038692923
0.036411513
0.033248065
0.02950537
0.025736858
0.0220442
0.018585045
0.015492405
0.012791271
0.010471441
0.0085082887
0.0068609999
0.0054831912
0.0043318069
0.0033697959
0.0025660416
0.0018945793
0.0013337412
0.00086543895
0.00047455498
0.00014844887
0.043088665
0.043343167
0.04411317
0.045339112
0.046381101
0.045969655
0.044319719
0.042417178
0.040560005
0.0386676
0.03638361
0.033218671
0.029476625
0.025709476
0.022018771
0.018562639
0.015473298
0.012775344
0.01045841
0.0084977842
0.0068526146
0.0054765563
0.0043266121
0.0033657851
0.0025630068
0.0018923499
0.0013321779
0.00086442741
0.00047400119
0.00014827578
0.043069805
0.043323633
0.044092017
0.04531496
0.046361222
0.045956784
0.044306469
0.042399353
0.040537915
0.038642294
0.036355716
0.033189283
0.029447883
0.025682114
0.021993367
0.018540259
0.015454217
0.012759438
0.010445395
0.008487292
0.0068442377
0.0054699266
0.0043214205
0.0033617758
0.0025599726
0.0018901206
0.0013306146
0.00086341573
0.00047344729
0.00014810264
0.043050939
0.0433041
0.044070893
0.04529086
0.046341306
0.045943917
0.044293293
0.042381605
0.040515847
0.038617006
0.036327831
0.033159898
0.029419159
0.025654768
0.021967996
0.018517912
0.015435166
0.01274356
0.010432405
0.0084768207
0.0068358781
0.0054633121
0.0043162404
0.0033577758
0.0025569457
0.0018878968
0.0013290552
0.00086240657
0.00047289477
0.00014792993
0.043032068
0.043284569
0.044049799
0.045266786
0.046321357
0.045931072
0.044280174
0.042363883
0.040493803
0.038591735
0.036299954
0.033130522
0.029390445
0.02562744
0.021942653
0.018495593
0.015416145
0.012727704
0.010419433
0.0084663632
0.0068275293
0.0054567052
0.0043110656
0.0033537796
0.0025539217
0.0018856748
0.001327497
0.00086139825
0.00047234272
0.00014775738
0.043013193
0.043265039
0.044028737
0.045242681
0.046301373
0.045918225
0.044267111
0.04234624
0.040471794
0.038566482
0.036272085
0.033101151
0.029361733
0.025600124
0.021917333
0.018473303
0.015397155
0.012711874
0.010406483
0.0084559238
0.0068191961
0.0054501099
0.0043059003
0.0033497909
0.0025509033
0.0018834569
0.0013259418
0.00086039182
0.00047179171
0.00014758517
0.042994312
0.04324551
0.044007704
0.045218627
0.046281354
0.045905377
0.04425411
0.042328628
0.040449835
0.038541246
0.036244224
0.033071779
0.029333023
0.02557282
0.021892036
0.018451043
0.01537819
0.012696064
0.01039355
0.0084454961
0.0068108705
0.0054435192
0.0043007377
0.0033458035
0.0025478849
0.0018812388
0.0013243861
0.00085938501
0.00047124051
0.00014741288
0.042975426
0.043225983
0.0439867
0.045194577
0.046261301
0.045892547
0.044241158
0.042311079
0.040427897
0.038516026
0.036216371
0.033042408
0.029304316
0.025545536
0.021866762
0.018428814
0.015359254
0.012680283
0.010380643
0.0084350902
0.0068025621
0.0054369427
0.0042955866
0.0033418254
0.0025448738
0.0018790261
0.0013228343
0.0008583807
0.00047069071
0.00014724103
0.042956536
0.043206457
0.043965725
0.045170514
0.046241207
0.04587971
0.044228276
0.042293582
0.040405979
0.038490825
0.036188529
0.03301304
0.029275614
0.025518267
0.021841515
0.01840661
0.015340343
0.012664526
0.010367754
0.0084246978
0.0067942635
0.0054303739
0.0042904407
0.0033378508
0.0025418652
0.0018768155
0.0013212837
0.00085737719
0.0004701414
0.00014706933
0.042937642
0.043186932
0.043944772
0.045146502
0.046221078
0.045866868
0.04421545
0.042276121
0.040384091
0.038465642
0.036160694
0.032983678
0.02924693
0.025491016
0.021816299
0.018384437
0.01532146
0.012648797
0.010354889
0.0084143238
0.0067859799
0.0054238174
0.0042853044
0.0033338842
0.0025388625
0.0018746093
0.0013197362
0.00085637572
0.00046959322
0.00014689798
0.042918744
0.04316741
0.043923817
0.045122477
0.046200906
0.045854038
0.044202681
0.042258736
0.040362251
0.038440475
0.036132868
0.032954318
0.02921825
0.025463778
0.021791108
0.018362292
0.015302601
0.01263309
0.010342041
0.0084039625
0.0067777052
0.0054172658
0.0042801708
0.0033299189
0.0025358601
0.0018724031
0.0013181885
0.00085537394
0.00046904483
0.00014672656
0.042899842
0.043147891
0.043902895
0.045098458
0.046180701
0.0458412
0.044189971
0.042241377
0.040340437
0.038415324
0.036105049
0.03292497
0.029189573
0.025436553
0.021765942
0.018340177
0.015283778
0.012617411
0.010329218
0.0083936242
0.0067694486
0.005410729
0.0042750493
0.0033259633
0.0025328653
0.0018702025
0.0013166447
0.00085437477
0.00046849787
0.00014655558
0.042880938
0.043128376
0.043882005
0.045074492
0.046160455
0.045828352
0.044177312
0.042224092
0.040318643
0.038390191
0.036077238
0.032895622
0.029160898
0.025409341
0.021740797
0.018318089
0.015264981
0.012601753
0.010316413
0.0083832992
0.0067612019
0.0054041994
0.0042699329
0.0033220113
0.002529873
0.0018680039
0.0013151022
0.00085337642
0.00046795136
0.00014638476
0.042862032
0.043108866
0.043861147
0.045050496
0.046140167
0.045815507
0.044164723
0.042206833
0.040296874
0.038365077
0.036049434
0.032866275
0.029132225
0.02538215
0.021715676
0.018296033
0.015246212
0.012586121
0.010303629
0.0083729923
0.0067529699