/*--------------------------------*- C++ -*----------------------------------*\
| =========                 |                                                 |
| \\      /  F ield         | OpenFOAM: The Open Source CFD Toolbox           |
|  \\    /   O peration     | Version:  v2012                                 |
|   \\  /    A nd           | Website:  www.openfoam.com                      |
|    \\/     M anipulation  |                                                 |
\*---------------------------------------------------------------------------*/
FoamFile
{
    version     2.0;
    format      ascii;
    class       volScalarField;
    location    "600";
    object      nut;
}
// * * * * * * * * * * * * * * * * * * * * * * * * * * * * * * * * * * * * * //

dimensions      [0 2 -1 0 0 0 0];


internalField   nonuniform List<scalar> 
24000
(
3.4373235e-05
1.0739854e-05
6.6172535e-06
7.8289644e-06
1.0732998e-05
1.2401581e-05
1.3403779e-05
1.3395521e-05
1.2990323e-05
1.3503793e-05
8.8724625e-06
5.2364178e-06
4.1717797e-06
3.3740558e-06
2.158158e-06
1.3814858e-06
8.5059122e-07
4.5103568e-07
1.8823161e-07
6.7618558e-08
2.1589534e-08
6.2655194e-09
1.6617532e-09
3.9767538e-10
8.3180434e-11
1.4393562e-11
1.9216804e-12
2.4441335e-13
1.1901914e-13
1.2885971e-13
3.4435897e-05
1.0596208e-05
6.5765172e-06
7.7823581e-06
1.0688615e-05
1.2369036e-05
1.3384079e-05
1.3385048e-05
1.2992076e-05
1.3482521e-05
8.862972e-06
5.2296196e-06
4.1639168e-06
3.3611667e-06
2.1504246e-06
1.3765982e-06
8.4736279e-07
4.4916947e-07
1.8737547e-07
6.7293015e-08
2.1482578e-08
6.2341532e-09
1.6534367e-09
3.9569738e-10
8.2770451e-11
1.4323407e-11
1.9124856e-12
2.433146e-13
1.1850611e-13
1.2827929e-13
3.4499999e-05
1.0722314e-05
6.6420857e-06
7.7756895e-06
1.0653349e-05
1.2321962e-05
1.3331231e-05
1.3327558e-05
1.293019e-05
1.3459336e-05
8.8477246e-06
5.2199838e-06
4.1549954e-06
3.3500457e-06
2.1432605e-06
1.3720443e-06
8.4434458e-07
4.4707631e-07
1.8639517e-07
6.6917418e-08
2.1359574e-08
6.1983921e-09
1.644046e-09
3.9348447e-10
8.2316399e-11
1.4246977e-11
1.9030499e-12
2.4268303e-13
1.1857833e-13
1.2831765e-13
3.4564648e-05
1.0773984e-05
6.6625896e-06
7.7532843e-06
1.0620932e-05
1.228818e-05
1.3295335e-05
1.3290833e-05
1.2892529e-05
1.3434283e-05
8.8309287e-06
5.2097373e-06
4.1461446e-06
3.3380698e-06
2.1358824e-06
1.3675277e-06
8.4146003e-07
4.4526754e-07
1.8558125e-07
6.6612093e-08
2.1260166e-08
6.1694034e-09
1.636381e-09
3.9166329e-10
8.1939383e-11
1.4182835e-11
1.8949453e-12
2.4200792e-13
1.184815e-13
1.2817949e-13
3.4629457e-05
1.0821206e-05
6.6768891e-06
7.7298733e-06
1.0590338e-05
1.2254637e-05
1.3259431e-05
1.3255471e-05
1.285659e-05
1.3408323e-05
8.8129673e-06
5.1988557e-06
4.1371817e-06
3.3264222e-06
2.1285466e-06
1.3629365e-06
8.3846688e-07
4.433244e-07
1.8469379e-07
6.6276033e-08
2.1150227e-08
6.1372855e-09
1.6278859e-09
3.8964529e-10
8.1521667e-11
1.4111699e-11
1.8858867e-12
2.4118656e-13
1.1829927e-13
1.2795472e-13
3.4694307e-05
1.0856391e-05
6.6868954e-06
7.7047921e-06
1.056016e-05
1.2221831e-05
1.3224836e-05
1.3222045e-05
1.2821813e-05
1.3381816e-05
8.7942961e-06
5.1875819e-06
4.1281746e-06
3.3147472e-06
2.1211267e-06
1.3582552e-06
8.354022e-07
4.4132359e-07
1.837765e-07
6.5927567e-08
2.1035928e-08
6.1038215e-09
1.6190192e-09
3.8753596e-10
8.1084513e-11
1.4037179e-11
1.8763939e-12
2.4033058e-13
1.1811387e-13
1.2772407e-13
3.4759104e-05
1.0885018e-05
6.6952873e-06
7.6792453e-06
1.0530245e-05
1.2189332e-05
1.3190867e-05
1.3189454e-05
1.2789048e-05
1.3354952e-05
8.7751486e-06
5.1760467e-06
4.1191453e-06
3.3030771e-06
2.1136611e-06
1.3535191e-06
8.3229336e-07
4.3928777e-07
1.8284209e-07
6.5572382e-08
2.0919376e-08
6.0696857e-09
1.6099712e-09
3.853827e-10
8.0638039e-11
1.3961009e-11
1.8666639e-12
2.3943145e-13
1.1789923e-13
1.2746324e-13
3.48238e-05
1.0909207e-05
6.702863e-06
7.6535184e-06
1.0500474e-05
1.2157012e-05
1.3157288e-05
1.3157393e-05
1.2757174e-05
1.3327806e-05
8.755659e-06
5.1643432e-06
4.1101101e-06
3.2914239e-06
2.1061749e-06
1.3487522e-06
8.2915871e-07
4.3722944e-07
1.8189621e-07
6.5212518e-08
2.0801207e-08
6.0350567e-09
1.6007883e-09
3.8319641e-10
8.0184537e-11
1.3883603e-11
1.8567667e-12
2.3851106e-13
1.1767448e-13
1.2719161e-13
3.4888374e-05
1.0930646e-05
6.7100444e-06
7.6278046e-06
1.0470825e-05
1.2124812e-05
1.3123952e-05
1.312565e-05
1.2725787e-05
1.3300489e-05
8.7359557e-06
5.1525336e-06
4.1010796e-06
3.2797956e-06
2.0986839e-06
1.3439704e-06
8.2601136e-07
4.3516065e-07
1.8094527e-07
6.4850668e-08
2.0682364e-08
6.000223e-09
1.5915489e-09
3.8099615e-10
7.9728009e-11
1.3805651e-11
1.8467894e-12
2.375761e-13
1.1744e-13
1.2690995e-13
3.4952819e-05
1.0950369e-05
6.7170276e-06
7.6021829e-06
1.0441276e-05
1.2092699e-05
1.3090773e-05
1.3094106e-05
1.2694534e-05
1.3273073e-05
8.7161149e-06
5.140658e-06
4.0920604e-06
3.2681995e-06
2.0911992e-06
1.3391838e-06
8.2285894e-07
4.3308736e-07
1.7999218e-07
6.4487959e-08
2.0563222e-08
5.9652949e-09
1.5822827e-09
3.7878904e-10
7.9269957e-11
1.3727415e-11
1.8367687e-12
2.3663246e-13
1.1719939e-13
1.266221e-13
3.5017142e-05
1.0969045e-05
6.7239261e-06
7.5766896e-06
1.041181e-05
1.2060656e-05
1.3057703e-05
1.3062694e-05
1.266338e-05
1.3245588e-05
8.6961778e-06
5.1287433e-06
4.0830566e-06
3.2566398e-06
2.083728e-06
1.3343996e-06
8.1970701e-07
4.3101431e-07
1.7903937e-07
6.4125407e-08
2.0444132e-08
5.9303799e-09
1.5730188e-09
3.7658218e-10
7.8811877e-11
1.3649156e-11
1.8267389e-12
2.356841e-13
1.1695433e-13
1.2632987e-13
3.5081355e-05
1.098707e-05
6.7308013e-06
7.551341e-06
1.0382411e-05
1.2028669e-05
1.3024713e-05
1.3031372e-05
1.26323e-05
1.3218054e-05
8.6761729e-06
5.1168073e-06
4.0740711e-06
3.2451194e-06
2.0762751e-06
1.3296221e-06
8.1655891e-07
4.2894426e-07
1.7808822e-07
6.3763551e-08
2.0325276e-08
5.8955319e-09
1.5637718e-09
3.7437902e-10
7.8354493e-11
1.3570997e-11
1.8167169e-12
2.3473325e-13
1.1670595e-13
1.2603448e-13
3.5145476e-05
1.1004654e-05
6.7376849e-06
7.5261439e-06
1.0353067e-05
1.1996734e-05
1.2991784e-05
1.3000119e-05
1.260128e-05
1.3189492e-05
8.6561203e-06
5.1048626e-06
4.0651056e-06
3.2336402e-06
2.0688441e-06
1.3248546e-06
8.1341734e-07
4.2687935e-07
1.7713984e-07
6.3402848e-08
2.0206815e-08
5.8607998e-09
1.554555e-09
3.7218283e-10
7.7898496e-11
1.3493061e-11
1.8067191e-12
2.3378218e-13
1.1645546e-13
1.2573723e-13
3.5209523e-05
1.1021884e-05
6.7445907e-06
7.5011053e-06
1.0323772e-05
1.1964846e-05
1.2958907e-05
1.2968918e-05
1.2570308e-05
1.315583e-05
8.6360344e-06
5.092918e-06
4.0561613e-06
3.2222036e-06
2.061437e-06
1.3200992e-06
8.1028367e-07
4.2482072e-07
1.7619475e-07
6.30435e-08
2.0088811e-08
5.8262017e-09
1.545373e-09
3.6999474e-10
7.7444117e-11
1.3415388e-11
1.7967511e-12
2.3283173e-13
1.1620337e-13
1.2543866e-13
3.5273517e-05
1.10388e-05
6.7515239e-06
7.4762263e-06
1.0294519e-05
1.1933004e-05
1.2926078e-05
1.2937762e-05
1.253938e-05
1.3122262e-05
8.6159256e-06
5.0809798e-06
4.0472393e-06
3.2108099e-06
2.0540555e-06
1.3153574e-06
8.0715933e-07
4.2276956e-07
1.7525359e-07
6.2685775e-08
1.9971362e-08
5.7917676e-09
1.5362343e-09
3.6781677e-10
7.6991793e-11
1.3338054e-11
1.7868232e-12
2.3188317e-13
1.1595024e-13
1.2513938e-13
3.533748e-05
1.1055445e-05
6.7584849e-06
7.451503e-06
1.0265303e-05
1.1901206e-05
1.289329e-05
1.2906643e-05
1.250849e-05
1.3088774e-05
8.5958015e-06
5.0690525e-06
4.0383401e-06
3.19946e-06
2.0467006e-06
1.3106303e-06
8.0404495e-07
4.207264e-07
1.7431661e-07
6.2329764e-08
1.9854495e-08
5.757505e-09
1.5271407e-09
3.6564934e-10
7.6541604e-11
1.3261072e-11
1.7769369e-12
2.309367e-13
1.1569616e-13
1.248395e-13
3.5401433e-05
1.1071864e-05
6.7654725e-06
7.4269298e-06
1.0236115e-05
1.1869449e-05
1.286054e-05
1.2875554e-05
1.2477634e-05
1.3055354e-05
8.575668e-06
5.0571397e-06
4.0294642e-06
3.1881543e-06
2.0393734e-06
1.3059189e-06
8.0094142e-07
4.1869185e-07
1.7338414e-07
6.1975609e-08
1.9738261e-08
5.7234305e-09
1.5180967e-09
3.6349362e-10
7.6093801e-11
1.3184487e-11
1.7670987e-12
2.2999331e-13
1.1544176e-13
1.2453966e-13
3.5465399e-05
1.1088083e-05
6.7724846e-06
7.4025018e-06
1.0206948e-05
1.1837731e-05
1.2827826e-05
1.2844492e-05
1.2446806e-05
1.3021995e-05
8.5555295e-06
5.045244e-06
4.0206121e-06
3.1768931e-06
2.0320742e-06
1.3012236e-06
7.9784887e-07
4.1666604e-07
1.7245619e-07
6.1623295e-08
1.962265e-08
5.6895396e-09
1.5091011e-09
3.6134924e-10
7.5648303e-11
1.3108285e-11
1.7573066e-12
2.2905289e-13
1.1518704e-13
1.2423988e-13
3.5529402e-05
1.110409e-05
6.779517e-06
7.3782191e-06
1.0177798e-05
1.1806051e-05
1.2795146e-05
1.2813455e-05
1.2416009e-05
1.2988694e-05
8.5353895e-06
5.0333673e-06
4.011784e-06
3.1656765e-06
2.0248037e-06
1.2965449e-06
7.9476796e-07
4.1464951e-07
1.7153306e-07
6.1272963e-08
1.9507715e-08
5.6558491e-09
1.5001586e-09
3.5921738e-10
7.5205364e-11
1.3032509e-11
1.7475667e-12
2.2811613e-13
1.1493229e-13
1.2394045e-13
3.5593465e-05
1.1119841e-05
6.7865658e-06
7.3540827e-06
1.0148664e-05
1.1774411e-05
1.2762501e-05
1.2782444e-05
1.2385242e-05
1.295545e-05
8.5152509e-06
5.0215113e-06
4.0029802e-06
3.1545044e-06
2.017562e-06
1.2918831e-06
7.9169871e-07
4.1264234e-07
1.7061477e-07
6.09246e-08
1.9393447e-08
5.6223559e-09
1.4912681e-09
3.5709776e-10
7.476492e-11
1.2957149e-11
1.7378773e-12
2.2718274e-13
1.1467732e-13
1.236412e-13
3.5657612e-05
1.11353e-05
6.7936256e-06
7.3300949e-06
1.0119548e-05
1.1742811e-05
1.2729893e-05
1.2751459e-05
1.2354507e-05
1.2922263e-05
8.4951155e-06
5.009677e-06
3.9942007e-06
3.1433775e-06
2.0103496e-06
1.2872386e-06
7.8864156e-07
4.1064476e-07
1.6970145e-07
6.0578281e-08
1.9279876e-08
5.5890698e-09
1.4824326e-09
3.5499113e-10
7.4327138e-11
1.2882235e-11
1.7282426e-12
2.2625342e-13
1.1442257e-13
1.2334256e-13
3.5721865e-05
1.1150469e-05
6.8006923e-06
7.3062536e-06
1.0090448e-05
1.1711252e-05
1.2697317e-05
1.2720497e-05
1.2323802e-05
1.288913e-05
8.4749848e-06
4.9978656e-06
3.9854459e-06
3.1322956e-06
2.0031664e-06
1.2826113e-06
7.8559625e-07
4.0865657e-07
1.6879297e-07
6.0233921e-08
1.9166969e-08
5.5559795e-09
1.4736487e-09
3.5289663e-10
7.3891829e-11
1.2807733e-11
1.7186583e-12
2.253277e-13
1.1416787e-13
1.2304437e-13
3.578625e-05
1.1165376e-05
6.8077621e-06
7.2825539e-06
1.0061359e-05
1.1679732e-05
1.2664776e-05
1.2689557e-05
1.2293124e-05
1.285605e-05
8.4548605e-06
4.9860779e-06
3.9767158e-06
3.1212587e-06
1.9960127e-06
1.2780016e-06
7.8256323e-07
4.0667813e-07
1.6788953e-07
5.9891627e-08
1.9054765e-08
5.5230982e-09
1.4649202e-09
3.5081525e-10
7.345921e-11
1.2733682e-11
1.7091294e-12
2.2440614e-13
1.1391344e-13
1.2274685e-13
3.585079e-05
1.1180041e-05
6.8148301e-06
7.2589929e-06
1.0032278e-05
1.1648251e-05
1.2632267e-05
1.2658639e-05
1.2262473e-05
1.2823022e-05
8.4347439e-06
4.9743147e-06
3.9680107e-06
3.1102671e-06
1.9888886e-06
1.2734095e-06
7.7954233e-07
4.0470934e-07
1.6699104e-07
5.9551347e-08
1.8943244e-08
5.4904187e-09
1.4562451e-09
3.4874642e-10
7.3029154e-11
1.2660059e-11
1.6996527e-12
2.2348825e-13
1.1365898e-13
1.224497e-13
3.591551e-05
1.1194459e-05
6.8218928e-06
7.23557e-06
1.0003203e-05
1.1616807e-05
1.259979e-05
1.2627742e-05
1.223185e-05
1.2790044e-05
8.4146359e-06
4.9625767e-06
3.9593306e-06
3.0993212e-06
1.9817945e-06
1.2688353e-06
7.7653399e-07
4.0275042e-07
1.6609765e-07
5.9213148e-08
1.8832431e-08
5.4579498e-09
1.4476258e-09
3.4669082e-10
7.2601813e-11
1.2586891e-11
1.6902324e-12
2.2257477e-13
1.1340498e-13
1.2215342e-13
3.5980435e-05
1.1208587e-05
6.8289452e-06
7.2122897e-06
9.9741372e-06
1.1585403e-05
1.2567347e-05
1.2596867e-05
1.2201254e-05
1.2757116e-05
8.3945373e-06
4.9508643e-06
3.9506757e-06
3.0884207e-06
1.9747301e-06
1.2642789e-06
7.7353785e-07
4.008011e-07
1.6520917e-07
5.8876932e-08
1.8722288e-08
5.4256781e-09
1.4390586e-09
3.4464745e-10
7.2176969e-11
1.2514141e-11
1.6808633e-12
2.2166511e-13
1.1315122e-13
1.2185777e-13
3.6045589e-05
1.1222376e-05
6.8359818e-06
7.1891539e-06
9.9450822e-06
1.155404e-05
1.2534937e-05
1.2566014e-05
1.2170687e-05
1.2724242e-05
8.3744489e-06
4.9391779e-06
3.9420462e-06
3.0775657e-06
1.9676956e-06
1.2597405e-06
7.7055432e-07
3.9886172e-07
1.6432579e-07
5.8542801e-08
1.8612854e-08
5.3936172e-09
1.4305472e-09
3.4261732e-10
7.1754845e-11
1.2441848e-11
1.6715508e-12
2.2075983e-13
1.1289787e-13
1.2156294e-13
3.6110996e-05
1.1235815e-05
6.8429973e-06
7.1661627e-06
9.916039e-06
1.1522718e-05
1.2502561e-05
1.2535183e-05
1.214015e-05
1.2691421e-05
8.3543713e-06
4.9275182e-06
3.9334423e-06
3.0667563e-06
1.960691e-06
1.2552201e-06
7.6758317e-07
3.969321e-07
1.634474e-07
5.8210687e-08
1.8504102e-08
5.3617577e-09
1.4220892e-09
3.4059975e-10
7.1335287e-11
1.2369984e-11
1.6622908e-12
2.1985834e-13
1.1264459e-13
1.2126856e-13
3.6176683e-05
1.1248925e-05
6.8499855e-06
7.1433123e-06
9.8870076e-06
1.1491438e-05
1.2470219e-05
1.2504372e-05
1.210964e-05
1.2658652e-05
8.3343052e-06
4.9158855e-06
3.9248641e-06
3.0559933e-06
1.9537167e-06
1.250718e-06
7.6462479e-07
3.9501242e-07
1.625741e-07
5.7880651e-08
1.8396057e-08
5.3301082e-09
1.4136869e-09
3.385954e-10
7.0918445e-11
1.2298577e-11
1.6530876e-12
2.1896135e-13
1.1239182e-13
1.2097511e-13
3.6242673e-05
1.1261736e-05
6.8569429e-06
7.120598e-06
9.8579827e-06
1.1460201e-05
1.243791e-05
1.2473583e-05
1.2079159e-05
1.2625935e-05
8.3142509e-06
4.9042799e-06
3.9163121e-06
3.0452767e-06
1.9467724e-06
1.2462338e-06
7.6167878e-07
3.9310236e-07
1.617057e-07
5.7552584e-08
1.8288674e-08
5.2986541e-09
1.4053361e-09
3.3660317e-10
7.0504078e-11
1.2227584e-11
1.6439353e-12
2.1806825e-13
1.1213935e-13
1.2068235e-13
3.6308992e-05
1.1274256e-05
6.8638652e-06
7.09802e-06
9.8289625e-06
1.1429004e-05
1.2405634e-05
1.2442815e-05
1.2048705e-05
1.259327e-05
8.2942089e-06
4.8927019e-06
3.9077865e-06
3.0346051e-06
1.9398582e-06
1.2417681e-06
7.5874556e-07
3.9120227e-07
1.6084239e-07
5.7226589e-08
1.8181997e-08
5.2674092e-09
1.3970409e-09
3.3462411e-10
7.0092421e-11
1.2157046e-11
1.6348397e-12
2.1717961e-13
1.1188736e-13
1.2039046e-13
3.6375664e-05
1.1286459e-05
6.8707483e-06
7.0755791e-06
9.799946e-06
1.1397848e-05
1.2373392e-05
1.2412067e-05
1.2018279e-05
1.2560658e-05
8.2741795e-06
4.8811515e-06
3.8992874e-06
3.0239783e-06
1.9329739e-06
1.2373203e-06
7.5582481e-07
3.8931193e-07
1.5998402e-07
5.6902588e-08
1.8075992e-08
5.236363e-09
1.3887982e-09
3.3265743e-10
6.9683295e-11
1.2086933e-11
1.6257961e-12
2.1629473e-13
1.1163542e-13
1.2009902e-13
3.6442714e-05
1.1298294e-05
6.8775883e-06
7.053278e-06
9.770931e-06
1.1366734e-05
1.2341184e-05
1.2381341e-05
1.1987884e-05
1.25281e-05
8.2541629e-06
4.8696287e-06
3.8908148e-06
3.0133967e-06
1.9261199e-06
1.2328911e-06
7.5291693e-07
3.8743151e-07
1.5913072e-07
5.6580641e-08
1.7970685e-08
5.2055242e-09
1.3806107e-09
3.3070382e-10
6.9276857e-11
1.2017272e-11
1.6168088e-12
2.1541441e-13
1.1138409e-13
1.1980859e-13
3.6510167e-05
1.1309727e-05
6.8843758e-06
7.0311187e-06
9.7419281e-06
1.133566e-05
1.2309009e-05
1.2350636e-05
1.1957518e-05
1.2495595e-05
8.2341593e-06
4.8581337e-06
3.8823686e-06
3.0028599e-06
1.9192957e-06
1.2284799e-06
7.5002143e-07
3.8556064e-07
1.5828224e-07
5.6260626e-08
1.7866027e-08
5.1748763e-09
1.3724733e-09
3.2876203e-10
6.8872834e-11
1.1948015e-11
1.6078713e-12
2.1453794e-13
1.1113312e-13
1.1951888e-13
3.6578046e-05
1.132077e-05
6.8911091e-06
7.0090936e-06
9.7129094e-06
1.1304633e-05
1.2276872e-05
1.2319952e-05
1.1927181e-05
1.2463146e-05
8.214169e-06
4.8466666e-06
3.873949e-06
2.9923681e-06
1.9125016e-06
1.2240871e-06
7.4713876e-07
3.8369973e-07
1.5743882e-07
5.5942669e-08
1.7762067e-08
5.1444358e-09
1.3643912e-09
3.2683333e-10
6.8471508e-11
1.1879212e-11
1.5989904e-12
2.13666e-13
1.1088269e-13
1.1923013e-13
3.6646375e-05
1.1331453e-05
6.8977761e-06
6.987211e-06
9.68191e-06
1.1273636e-05
1.2244763e-05
1.2289291e-05
1.1896874e-05
1.2430751e-05
8.1941921e-06
4.8352275e-06
3.8655558e-06
2.9819208e-06
1.9057372e-06
1.2197122e-06
7.4426847e-07
3.8184848e-07
1.566003e-07
5.5626676e-08
1.7658769e-08
5.1141905e-09
1.3563607e-09
3.249168e-10
6.8072673e-11
1.1810828e-11
1.5901607e-12
2.1279771e-13
1.1063227e-13
1.1894174e-13
3.6715179e-05
1.1341802e-05
6.9043747e-06
6.9654673e-06
9.6457285e-06
1.1242669e-05
1.2212681e-05
1.225865e-05
1.1866597e-05
1.239841e-05
8.1742286e-06
4.8238164e-06
3.857189e-06
2.9715185e-06
1.8990029e-06
1.2153557e-06
7.4141098e-07
3.8000706e-07
1.5576677e-07
5.5312712e-08
1.755616e-08
5.0841502e-09
1.3483847e-09
3.2301322e-10
6.767651e-11
1.1742894e-11
1.5813873e-12
2.1193398e-13
1.1038246e-13
1.1865435e-13
3.678448e-05
1.1351817e-05
6.9109004e-06
6.943844e-06
9.6096982e-06
1.1211728e-05
1.2180626e-05
1.2228028e-05
1.1836349e-05
1.2366122e-05
8.1542783e-06
4.812433e-06
3.8488485e-06
2.9611607e-06
1.8922982e-06
1.2110171e-06
7.3856571e-07
3.7817501e-07
1.5493795e-07
5.5000629e-08
1.7454182e-08
5.0542952e-09
1.3404575e-09
3.2112114e-10
6.7282694e-11
1.1675352e-11
1.5726622e-12
2.1107391e-13
1.101329e-13
1.1836758e-13
3.6854301e-05
1.1361455e-05
6.917345e-06
6.92236e-06
9.5738181e-06
1.1180818e-05
1.2148597e-05
1.2197426e-05
1.1806129e-05
1.2333889e-05
8.1343417e-06
4.8010777e-06
3.8405344e-06
2.9508473e-06
1.8856233e-06
1.2066968e-06
7.3573317e-07
3.7635277e-07
1.5411411e-07
5.4690561e-08
1.7352887e-08
5.0246432e-09
1.3325843e-09
3.1924189e-10
6.6891524e-11
1.1608258e-11
1.5639928e-12
2.1021828e-13
1.0988385e-13
1.1808169e-13
3.6924666e-05
1.1370669e-05
6.9236815e-06
6.9010184e-06
9.538087e-06
1.1149937e-05
1.2116595e-05
1.2166844e-05
1.1775939e-05
1.2301711e-05
8.1144189e-06
4.7897503e-06
3.8322466e-06
2.9405782e-06
1.8789779e-06
1.2023945e-06
7.3291298e-07
3.7454005e-07
1.5329505e-07
5.4382408e-08
1.7252237e-08
4.9951811e-09
1.3247613e-09
3.1737446e-10
6.6502774e-11
1.154157e-11
1.5553732e-12
2.0936618e-13
1.0963478e-13
1.1779614e-13
3.6995596e-05
1.1379445e-05
6.92992e-06
6.8798177e-06
9.5025041e-06
1.1119086e-05
1.208462e-05
1.2136282e-05
1.1745778e-05
1.2269588e-05
8.0945098e-06
4.778451e-06
3.823985e-06
2.9303537e-06
1.8723627e-06
1.1981107e-06
7.301057e-07
3.7273712e-07
1.5248095e-07
5.4076258e-08
1.7152265e-08
4.965921e-09
1.3169921e-09
3.1551984e-10
6.6116666e-11
1.1475327e-11
1.5468096e-12
2.0851871e-13
1.0938641e-13
1.1751167e-13
3.7067112e-05
1.1387801e-05
6.9360572e-06
6.8587528e-06
9.4670681e-06
1.1088267e-05
1.2052672e-05
1.210574e-05
1.1715646e-05
1.2237519e-05
8.0746146e-06
4.7671797e-06
3.8157495e-06
2.9201734e-06
1.8657769e-06
1.1938448e-06
7.2731068e-07
3.7094352e-07
1.516715e-07
5.3771958e-08
1.7052913e-08
4.9368424e-09
1.3092706e-09
3.1367644e-10
6.573285e-11
1.1409469e-11
1.5382932e-12
2.076749e-13
1.0913836e-13
1.1722787e-13
3.7139236e-05
1.1395765e-05
6.9420906e-06
6.8378206e-06
9.4317781e-06
1.1057477e-05
1.2020751e-05
1.2075216e-05
1.1685544e-05
1.2205507e-05
8.0547332e-06
4.7559364e-06
3.8075401e-06
2.910037e-06
1.8592208e-06
1.1895973e-06
7.2452849e-07
3.6915974e-07
1.50867e-07
5.3469661e-08
1.6954239e-08
4.9079655e-09
1.3016029e-09
3.1184582e-10
6.5351671e-11
1.1344057e-11
1.5298328e-12
2.0683567e-13
1.0889093e-13
1.1694507e-13
3.7211988e-05
1.1403358e-05
6.9480141e-06
6.8170176e-06
9.3966328e-06
1.1026716e-05
1.1988855e-05
1.2044711e-05
1.165547e-05
1.2173552e-05
8.0348658e-06
4.7447211e-06
3.7993566e-06
2.8999441e-06
1.8526939e-06
1.1853677e-06
7.2175864e-07
3.6738543e-07
1.5006726e-07
5.3169262e-08
1.6856203e-08
4.8792766e-09
1.2939848e-09
3.100269e-10
6.4972891e-11
1.1279047e-11
1.521422e-12
2.0599999e-13
1.086435e-13
1.166626e-13
3.7285388e-05
1.1410569e-05
6.9538245e-06
6.7963426e-06
9.361631e-06
1.0995983e-05
1.1956984e-05
1.2014222e-05
1.1625425e-05
1.2141651e-05
8.0150122e-06
4.7335335e-06
3.7911989e-06
2.8898953e-06
1.8461967e-06
1.1811565e-06
7.1900161e-07
3.6562084e-07
1.4927242e-07
5.2870844e-08
1.6758838e-08
4.8507875e-09
1.28642e-09
3.0822067e-10
6.4596734e-11
1.1214482e-11
1.5130671e-12
2.0516897e-13
1.0839678e-13
1.1638121e-13
3.7359455e-05
1.1417351e-05
6.9595153e-06
6.7757983e-06
9.3267715e-06
1.0965278e-05
1.1925139e-05
1.1983751e-05
1.1595406e-05
1.2109804e-05
7.9951722e-06
4.7223733e-06
3.7830667e-06
2.8798902e-06
1.8397286e-06
1.176963e-06
7.1625667e-07
3.6386543e-07
1.4848215e-07
5.2574238e-08
1.6662078e-08
4.8224759e-09
1.2789018e-09
3.0642544e-10
6.4222824e-11
1.1150293e-11
1.5047586e-12
2.0434154e-13
1.0815035e-13
1.1610044e-13
3.7434207e-05
1.1423657e-05
6.9650788e-06
6.7553851e-06
9.2920529e-06
1.0934604e-05
1.1893319e-05
1.1953297e-05
1.1565417e-05
1.2078011e-05
7.9753458e-06
4.7112405e-06
3.7749601e-06
2.8699283e-06
1.8332899e-06
1.1727876e-06
7.1352436e-07
3.6211964e-07
1.4769672e-07
5.2279585e-08
1.656598e-08
4.7943607e-09
1.2714361e-09
3.0464265e-10
6.3851486e-11
1.108654e-11
1.4965047e-12
2.0351851e-13
1.0790446e-13
1.1582058e-13
3.7509663e-05
1.1429483e-05
6.9705109e-06
6.7351014e-06
9.2574739e-06
1.0903959e-05
1.1861525e-05
1.192286e-05
1.1535456e-05
1.2046275e-05
7.9555327e-06
4.7001348e-06
3.7668787e-06
2.8600095e-06
1.82688e-06
1.16863e-06
7.1080419e-07
3.6038312e-07
1.4691591e-07
5.1986771e-08
1.6470498e-08
4.7664271e-09
1.2640182e-09
3.0287116e-10
6.3482465e-11
1.1023175e-11
1.4882985e-12
2.0269885e-13
1.076585e-13
1.1554096e-13
3.7585838e-05
1.1434847e-05
6.9758027e-06
6.7149426e-06
9.2230333e-06
1.0873344e-05
1.1829756e-05
1.1892439e-05
1.1505525e-05
1.2014594e-05
7.9357328e-06
4.689056e-06
3.7588223e-06
2.8501339e-06
1.8204994e-06
1.1644906e-06
7.0809674e-07
3.5865614e-07
1.461399e-07
5.1695884e-08
1.6375669e-08
4.7386875e-09
1.2566521e-09
3.01112e-10
6.3115992e-11
1.0960242e-11
1.4801466e-12
2.0188374e-13
1.0741325e-13
1.1526241e-13
3.7662748e-05
1.1439773e-05
6.9809508e-06
6.6949048e-06
9.1887298e-06
1.0842758e-05
1.1798011e-05
1.1862033e-05
1.147562e-05
1.1982968e-05
7.915946e-06
4.6780039e-06
3.7507907e-06
2.840301e-06
1.8141476e-06
1.1603688e-06
7.0540133e-07
3.569382e-07
1.4536835e-07
5.1406767e-08
1.6281429e-08
4.7111207e-09
1.2493315e-09
2.9936356e-10
6.2751713e-11
1.0897677e-11
1.4720402e-12
2.0107218e-13
1.0716835e-13
1.1498453e-13
3.7740409e-05
1.1444285e-05
6.9859516e-06
6.6749848e-06
9.154562e-06
1.0812199e-05
1.1766288e-05
1.1831642e-05
1.1445742e-05
1.1951396e-05
7.8961722e-06
4.6669783e-06
3.7427838e-06
2.8305108e-06
1.8078246e-06
1.1562651e-06
7.0271854e-07
3.5522981e-07
1.4460159e-07
5.1119575e-08
1.6187841e-08
4.6837475e-09
1.2420625e-09
2.976274e-10
6.2389977e-11
1.0835543e-11
1.463988e-12
2.0026505e-13
1.0692405e-13
1.1470758e-13
3.7818835e-05
1.1448372e-05
6.990796e-06
6.6551816e-06
9.1205287e-06
1.0781669e-05
1.1734589e-05
1.1801265e-05
1.1415892e-05
1.1919879e-05
7.8764114e-06
4.6559789e-06
3.7348014e-06
2.8207627e-06
1.8015302e-06
1.1521789e-06
7.0004784e-07
3.5353061e-07
1.4383941e-07
5.0834201e-08
1.6094862e-08
4.6565536e-09
1.2348409e-09
2.9590244e-10
6.2030537e-11
1.0773796e-11
1.4559834e-12
1.9946134e-13
1.0667974e-13
1.1443094e-13
3.7898039e-05
1.1451986e-05
6.9954816e-06
6.6354979e-06
9.0866284e-06
1.0751166e-05
1.1702913e-05
1.17709e-05
1.1386068e-05
1.1888416e-05
7.8566633e-06
4.6450054e-06
3.7268431e-06
2.8110571e-06
1.7952646e-06
1.1481109e-06
6.9738972e-07
3.5184085e-07
1.4308195e-07
5.0550726e-08
1.6002526e-08
4.6295509e-09
1.2276703e-09
2.9418966e-10
6.1673618e-11
1.0712476e-11
1.4480327e-12
1.9866215e-13
1.0643614e-13
1.1415534e-13
3.7978032e-05
1.145508e-05
7.0000008e-06
6.6159346e-06
9.0528597e-06
1.0720693e-05
1.167126e-05
1.1740549e-05
1.1356272e-05
1.1857008e-05
7.8369277e-06
4.6340573e-06
3.7189086e-06
2.8013933e-06
1.7890273e-06
1.1440601e-06
6.9474347e-07
3.5016e-07
1.4232889e-07
5.0268988e-08
1.5910767e-08
4.6027178e-09
1.2205443e-09
2.9248739e-10
6.1318852e-11
1.0651518e-11
1.4401268e-12
1.9786642e-13
1.0619282e-13
1.1388033e-13
3.8058826e-05
1.1457652e-05
7.0043464e-06
6.5964892e-06
9.0192214e-06
1.0690249e-05
1.163963e-05
1.1710212e-05
1.1326504e-05
1.1825657e-05
7.8172046e-06
4.6231345e-06
3.7109976e-06
2.7917709e-06
1.7828182e-06
1.1400271e-06
6.9210961e-07
3.484885e-07
1.4158051e-07
4.9989126e-08
1.5819644e-08
4.576073e-09
1.2134686e-09
2.9079707e-10
6.0966559e-11
1.059098e-11
1.4322737e-12
1.97075e-13
1.0595006e-13
1.136062e-13
3.8140429e-05
1.1459717e-05
7.0085155e-06
6.5771587e-06
8.985712e-06
1.0659835e-05
1.1608023e-05
1.1679889e-05
1.1296765e-05
1.1794361e-05
7.7974937e-06
4.6122364e-06
3.7031098e-06
2.7821895e-06
1.7766369e-06
1.1360114e-06
6.8948766e-07
3.46826e-07
1.4083658e-07
4.9711033e-08
1.5729111e-08
4.5496024e-09
1.2064389e-09
2.8911764e-10
6.0616503e-11
1.0530818e-11
1.424467e-12
1.9628691e-13
1.0570727e-13
1.1333233e-13
3.8222851e-05
1.1461296e-05
7.012499e-06
6.5579398e-06
8.9523302e-06
1.0629449e-05
1.1576437e-05
1.1649576e-05
1.1267051e-05
1.1763118e-05
7.7777947e-06
4.6013625e-06
3.6952449e-06
2.7726497e-06
1.7704841e-06
1.1320135e-06
6.8687813e-07
3.4517274e-07
1.4009727e-07
4.9434786e-08
1.5639203e-08
4.5233173e-09
1.1994586e-09
2.8745e-10
6.0268886e-11
1.047107e-11
1.4167126e-12
1.9550321e-13
1.0546516e-13
1.1305947e-13
3.8306099e-05
1.1462417e-05
7.0162959e-06
6.5388287e-06
8.919075e-06
1.0599093e-05
1.1544872e-05
1.1619274e-05
1.1237363e-05
1.1731926e-05
7.7581073e-06
4.5905124e-06
3.6874024e-06
2.7631506e-06
1.7643589e-06
1.1280327e-06
6.8428033e-07
3.4352822e-07
1.3936225e-07
4.9160235e-08
1.554986e-08
4.4971978e-09
1.192522e-09
2.8579265e-10
5.9923379e-11
1.0411678e-11
1.4090024e-12
1.9472303e-13
1.0522343e-13
1.1278727e-13
3.8390179e-05
1.1463078e-05
7.0199043e-06
6.5198249e-06
8.8859448e-06
1.0568765e-05
1.1513327e-05
1.158898e-05
1.12077e-05
1.1700788e-05
7.7384315e-06
4.5796854e-06
3.6795821e-06
2.7536919e-06
1.7582613e-06
1.1240694e-06
6.8169479e-07
3.4189292e-07
1.3863183e-07
4.8887524e-08
1.5461137e-08
4.4712629e-09
1.1856347e-09
2.8414703e-10
5.9580302e-11
1.0352698e-11
1.4013442e-12
1.9394717e-13
1.049823e-13
1.12516e-13
3.8475096e-05
1.1463236e-05
7.0233137e-06
6.5009312e-06
8.8529385e-06
1.0538466e-05
1.1481804e-05
1.1558698e-05
1.1178066e-05
1.1669704e-05
7.7187672e-06
4.5688813e-06
3.6717834e-06
2.7442728e-06
1.752191e-06
1.1201231e-06
6.79121e-07
3.402665e-07
1.379058e-07
4.8616553e-08
1.5372997e-08
4.4454994e-09
1.1787927e-09
2.8251216e-10
5.9239437e-11
1.0294091e-11
1.3937323e-12
1.9317472e-13
1.0474125e-13
1.1224507e-13
3.8560852e-05
1.1462839e-05
7.0265206e-06
6.4821487e-06
8.8200547e-06
1.0508197e-05
1.1450301e-05
1.1528427e-05
1.1148458e-05
1.1638674e-05
7.6991143e-06
4.5580993e-06
3.6640059e-06
2.7348938e-06
1.7461482e-06
1.1161942e-06
6.765594e-07
3.3864915e-07
1.371843e-07
4.8347395e-08
1.5285469e-08
4.4199178e-09
1.1719992e-09
2.8088888e-10
5.8900974e-11
1.0235893e-11
1.3861719e-12
1.9240663e-13
1.0450088e-13
1.1197515e-13
3.864745e-05
1.1461878e-05
7.0295177e-06
6.4634778e-06
8.7872922e-06
1.0477959e-05
1.1418819e-05
1.1498164e-05
1.1118876e-05
1.1607697e-05
7.6794726e-06
4.547339e-06
3.6562493e-06
2.7255543e-06
1.7401322e-06
1.112282e-06
6.7400927e-07
3.3704038e-07
1.3646702e-07
4.8079898e-08
1.5198495e-08
4.3944989e-09
1.1652487e-09
2.7927573e-10
5.8564593e-11
1.0178045e-11
1.3786552e-12
1.9164197e-13
1.0426083e-13
1.117058e-13
3.8734891e-05
1.1460363e-05
7.0322984e-06
6.4449156e-06
8.75465e-06
1.0447752e-05
1.1387356e-05
1.1467911e-05
1.1089322e-05
1.1576773e-05
7.6598422e-06
4.5365996e-06
3.648513e-06
2.7162539e-06
1.7341432e-06
1.1083868e-06
6.7147105e-07
3.3544056e-07
1.3575419e-07
4.7814186e-08
1.5112123e-08
4.3692587e-09
1.1585459e-09
2.7767395e-10
5.8230567e-11
1.0120597e-11
1.3711889e-12
1.9088143e-13
1.0402131e-13
1.1143728e-13
3.8823172e-05
1.1458315e-05
7.034862e-06
6.4264587e-06
8.722127e-06
1.0417576e-05
1.1355914e-05
1.1437666e-05
1.1059794e-05
1.15459e-05
7.6402227e-06
4.5258805e-06
3.6407965e-06
2.706992e-06
1.7281807e-06
1.1045082e-06
6.6894425e-07
3.3384934e-07
1.350456e-07
4.7550149e-08
1.5026311e-08
4.3441835e-09
1.1518868e-09
2.7608252e-10
5.7898672e-11
1.0063509e-11
1.3637672e-12
1.9012412e-13
1.0378179e-13
1.1116902e-13
3.8912291e-05
1.1455759e-05
7.0372018e-06
6.408106e-06
8.6897222e-06
1.0387431e-05
1.132449e-05
1.1407428e-05
1.1030291e-05
1.1515076e-05
7.6206143e-06
4.5151808e-06
3.6330992e-06
2.6977687e-06
1.7222449e-06
1.1006466e-06
6.6642935e-07
3.3226695e-07
1.343414e-07
4.7287863e-08
1.4941089e-08
4.3192838e-09
1.1452745e-09
2.7450227e-10
5.7569098e-11
1.0006816e-11
1.3563953e-12
1.8937105e-13
1.0354296e-13
1.1090176e-13
3.9002246e-05
1.1452715e-05
7.0393178e-06
6.3898553e-06
8.6574346e-06
1.0357318e-05
1.1293084e-05
1.1377198e-05
1.1000815e-05
1.1484301e-05
7.6010166e-06
4.5044997e-06
3.6254207e-06
2.6885833e-06
1.7163352e-06
1.0968012e-06
6.6392569e-07
3.306929e-07
1.3364128e-07
4.7027183e-08
1.4856401e-08
4.2945409e-09
1.1387036e-09
2.729318e-10
5.7241531e-11
9.9504615e-12
1.3490657e-12
1.8862136e-13
1.0330452e-13
1.1063513e-13
3.909303e-05
1.1449165e-05
7.0412092e-06
6.3717085e-06
8.6252633e-06
1.0327236e-05
1.1261698e-05
1.1346975e-05
1.0971367e-05
1.145358e-05
7.58143e-06
4.4938364e-06
3.6177604e-06
2.6794353e-06
1.7104515e-06
1.0929726e-06
6.6143376e-07
3.2912765e-07
1.3294554e-07
4.6768251e-08
1.4772304e-08
4.2699732e-09
1.1321795e-09
2.7137249e-10
5.6916278e-11
9.8945008e-12
1.3417859e-12
1.8787584e-13
1.030667e-13
1.103694e-13
3.9184636e-05
1.1445049e-05
7.0428651e-06
6.3536708e-06
8.5932073e-06
1.029719e-05
1.1230331e-05
1.1316759e-05
1.0941946e-05
1.142291e-05
7.5618544e-06
4.4831901e-06
3.6101178e-06
2.6703244e-06
1.7045933e-06
1.08916e-06
6.5895303e-07
3.2757085e-07
1.3225396e-07
4.6510965e-08
1.4688756e-08
4.2455676e-09
1.1256982e-09
2.6982335e-10
5.6593121e-11
9.8388944e-12
1.3345502e-12
1.8713356e-13
1.0282893e-13
1.1010397e-13
3.9277056e-05
1.1440345e-05
7.0442858e-06
6.3357434e-06
8.5612658e-06
1.0267178e-05
1.1198984e-05
1.1286552e-05
1.0912552e-05
1.1392289e-05
7.54229e-06
4.4725599e-06
3.6024922e-06
2.6612505e-06
1.6987611e-06
1.085364e-06
6.5648394e-07
3.2602271e-07
1.315667e-07
4.6255403e-08
1.4605791e-08
4.2213351e-09
1.1192632e-09
2.6828527e-10
5.6272262e-11
9.7836793e-12
1.327364e-12
1.8639555e-13
1.025919e-13
1.0983957e-13
3.937028e-05
1.1435063e-05
7.0454699e-06
6.3179252e-06
8.5294383e-06
1.0237202e-05
1.1167657e-05
1.1256351e-05
1.0883186e-05
1.1361715e-05
7.5227366e-06
4.4619445e-06
3.5948829e-06
2.6522129e-06
1.6929539e-06
1.0815837e-06
6.5402573e-07
3.2448271e-07
1.3088341e-07
4.6001408e-08
1.4523347e-08
4.1972554e-09
1.1128686e-09
2.6675672e-10
5.5953362e-11
9.728795e-12
1.3202191e-12
1.8566083e-13
1.0235521e-13