/*--------------------------------*- C++ -*----------------------------------*\
| =========                 |                                                 |
| \\      /  F ield         | OpenFOAM: The Open Source CFD Toolbox           |
|  \\    /   O peration     | Version:  v2012                                 |
|   \\  /    A nd           | Website:  www.openfoam.com                      |
|    \\/     M anipulation  |                                                 |
\*---------------------------------------------------------------------------*/
FoamFile
{
    version     2.0;
    format      ascii;
    class       volScalarField;
    location    "600";
    object      omega;
}
// * * * * * * * * * * * * * * * * * * * * * * * * * * * * * * * * * * * * * //

dimensions      [0 0 -1 0 0 0 0];


internalField   nonuniform List<scalar> 
24000
(
3196.8266
6744.1764
18414.73
48556.562
91860.751
130408.36
163757.2
187210.23
193941.02
189553.83
210043.28
342033.79
664938.84
1069973.4
1554481.9
2050663.7
2586429.6
3284939.7
4364279.9
6169962.7
9258000.7
14591131
23982703
41137406
74336565
1.4435452e+08
3.1228496e+08
8.0456891e+08
2.8241336e+09
1.865118e+10
3190.8518
6725.5293
18338.303
48329.652
91597.499
130158.35
163511.52
186995.16
193798.63
189459.42
209888.03
341632.79
664240.96
1069372.9
1553797.9
2049835.7
2585599
3284251.7
4363834.4
6169853.9
9258380.7
14592266
23985052
41141794
74344660
1.443701e+08
3.1231786e+08
8.046501e+08
2.8243948e+09
1.8653399e+10
3184.9513
6706.2018
18260.057
48118.723
91375.405
129965.72
163340.93
186871.21
193732.66
189395.98
209755.58
341376.27
663794.31
1068944.5
1553068.1
2048674.8
2584206.1
3282994.7
4363112.6
6169964.6
9259476.6
14594440
23988480
41146867
74351986
1.4437994e+08
3.1232597e+08
8.046168e+08
2.8239325e+09
1.8656319e+10
3178.957
6686.6168
18182.452
47910.983
91154.469
129767.98
163165.83
186734.14
193643.63
189311.47
209625.79
341156.67
663420.42
1068556.6
1552287.7
2047370.4
2582592
3281392.2
4361834.2
6169273.4
9259606.6
14595670
23991259
41151990
74360911
1.4439527e+08
3.123516e+08
8.0464975e+08
2.8238346e+09
1.86594e+10
3172.9155
6666.8969
18105.001
47704.522
90934.086
129570.13
162993.32
186596.82
193550.55
189222.74
209503.6
340982.37
663154.56
1068305.4
1551654.4
2046207.6
2581117.4
3279955.1
4360790.5
6168928.3
9260228.6
14597586
23995017
41158621
74372396
1.444155e+08
3.1238804e+08
8.0471239e+08
2.8238541e+09
1.8662997e+10
3166.8452
6647.1575
18027.906
47499.148
90714.104
129372.16
162821.63
186458.49
193454.07
189130.42
209385.49
340836.76
662961.48
1068151.1
1551126.9
2045139.8
2579717.9
3278580.8
4359819
6168698.2
9261052.6
14599849
23999360
41166237
74385591
1.4443885e+08
3.124307e+08
8.0478886e+08
2.8239087e+09
1.8667055e+10
3160.7599
6627.4445
17951.179
47294.613
90494.309
129174.11
162650.61
186319.85
193355.07
189036.09
209270.75
340711.5
662820
1068065.6
1550674.2
2044138.3
2578370
3277249
4358893.4
6168533.7
9261983.3
14602292
24004015
41174408
74399821
1.4446429e+08
3.1247812e+08
8.0487863e+08
2.8240171e+09
1.867134e+10
3154.6674
6607.7812
17874.827
47090.794
90274.561
128975.94
162480.02
186181.03
193254.81
188940.29
209158.41
340600.26
662713.69
1068026.9
1550272
2043181.7
2577057.9
3275948
4358003.8
6168424.4
9263005.1
14604886
24008918
41182998
74414793
1.4449114e+08
3.1252853e+08
8.0497597e+08
2.8241513e+09
1.8675805e+10
3148.5715
6588.1767
17798.836
46887.603
90054.762
128777.61
162309.7
186042.12
193153.87
188843.45
209047.79
340498.87
662631.47
1068019.8
1549903.5
2042255
2575769.1
3274666.3
4357135.5
6168346.3
9264078.4
14607568
24013970
41191851
74430247
1.4451895e+08
3.1258107e+08
8.0507907e+08
2.8243078e+09
1.8680379e+10
3142.4739
6568.6338
17723.193
46684.983
89834.845
128579.09
162139.54
185903.14
193052.56
188746.01
208938.47
340404.56
662566.01
1068034.3
1549557.8
2041348.6
2574496.9
3273399.2
4356284
6168292.9
9265191.9
14610316
24019134
41200894
74446046
1.4454743e+08
3.1263511e+08
8.0518623e+08
2.8244799e+09
1.8685032e+10
3136.3745
6549.1515
17647.882
46482.89
89614.762
128380.36
161969.43
185764.09
192950.96
188648.17
208830.18
340315.47
662512.36
1068063.5
1549227.3
2040456
2573236
3272142.1
4355443.6
6168255.2
9266330.4
14613105
24024368
41210061
74462075
1.4457637e+08
3.126902e+08
8.0529637e+08
2.8246642e+09
1.8689735e+10
3130.2728
6529.7274
17572.889
46281.294
89394.482
128181.4
161799.31
185624.95
192849.14
188550.07
208722.7
340230.33
662467.16
1068103
1548907.1
2039572.9
2571983.4
3270892.7
4354612.2
6168230
9267488.2
14615925
24029655
41219320
74478273
1.4460566e+08
3.1274609e+08
8.0540879e+08
2.8248582e+09
1.8694473e+10
3124.1673
6510.3582
17498.204
46080.173
89173.98
127982.18
161629.13
185485.71
192747.13
188451.78
208615.92
340148.27
662428.06
1068149.3
1548593.4
2038695.9
2570736.5
3269648.8
4353786.8
6168212.7
9268657.8
14618765
24034973
41228636
74494581
1.4463518e+08
3.1280253e+08
8.0552288e+08
2.8250596e+09
1.8699232e+10
3118.0566
6491.0405
17423.816
45879.512
88953.241
127782.7
161458.83
185346.35
192644.98
188353.34
208509.74
340068.67
662393.43
1068200.3
1548283.9
2037823.3
2569493.9
3268409.6
4352967.2
6168203
9269838
14621620
24040318
41237999
74510976
1.4466487e+08
3.128594e+08
8.0563833e+08
2.8252674e+09
1.8704006e+10
3111.939
6471.771
17349.717
45679.298
88732.251
127582.94
161288.4
185206.88
192542.68
188254.79
208404.08
339991.08
662362.08
1068254.3
1547976.8
2036953.2
2568254.4
3267173.8
4352151.3
6168197.6
9271023.6
14624484
24045677
41247386
74527421
1.4469468e+08
3.1291658e+08
8.057548e+08
2.8254803e+09
1.8708787e+10
3105.8128
6452.5467
17275.899
45479.523
88511.002
127382.89
161117.79
185067.27
192440.25
188156.15
208298.9
339915.19
662333.18
1068310.3
1547670.9
2036084.7
2567017.2
3265941.2
4351339.3
6168196.5
9272214.5
14627355
24051047
41256794
74543908
1.4472459e+08
3.1297402e+08
8.058722e+08
2.8256981e+09
1.8713571e+10
3099.6763
6433.3642
17202.356
45280.182
88289.487
127182.55
160947
184927.53
192337.71
188057.43
208194.15
339840.76
662306.1
1068367.2
1547365.1
2035216.8
2565781.5
3264710.8
4350529.8
6168197.8
9273407.1
14630227
24056419
41266208
74560413
1.4475456e+08
3.1303164e+08
8.0599028e+08
2.8259197e+09
1.8718354e+10
3093.5277
6414.2206
17129.084
45081.271
88067.701
126981.91
160776
184787.64
192235.06
187958.65
208089.81
339767.63
662280.37
1068424.5
1547058.8
2034349.2
2564547.3
3263482.9
4349723.5
6168202.5
9274603.5
14633104
24061798
41275633
74576940
1.4478457e+08
3.1308942e+08
8.0610901e+08
2.8261451e+09
1.8723135e+10
3087.3652
6395.1129
17056.077
44882.788
87845.64
126780.95
160604.78
184647.6
192132.29
187859.8
207985.86
339695.65
662255.62
1068481.6
1546751.4
2033481.1
2563313.8
3262256.6
4348919
6168208.5
9275799.8
14635979
24067174
41285055
74593468
1.4481461e+08
3.131473e+08
8.0622821e+08
2.8263736e+09
1.8727911e+10
3081.187
6376.0381
16983.333
44684.731
87623.299
126579.68
160433.33
184507.41
192029.41
187760.89
207882.29
339624.73
662231.59
1068538.1
1546442.6
2032612.4
2562081
3261032.2
4348116.9
6168216.5
9276997.4
14638854
24072549
41294477
74610000
1.4484467e+08
3.1320529e+08
8.0634791e+08
2.8266053e+09
1.873268e+10
3074.9914
6356.9936
16910.848
44487.1
87400.676
126378.09
160261.62
184367.05
191926.42
187661.93
207779.08
339554.8
662208.09
1068593.9
1546131.9
2031742.7
2560848.6
3259809
4347316.1
6168224.8
9278193.4
14641726
24077917
41303888
74626520
1.4487472e+08
3.1326332e+08
8.0646797e+08
2.8268399e+09
1.8737442e+10
3068.7766
6337.9767
16838.617
44289.895
87177.77
126176.17
160089.67
184226.54
191823.32
187562.92
207676.22
339485.82
662184.99
1068648.7
1545819.4
2030872.1
2559616.9
3258587.8
4346517.8
6168235.5
9279390.8
14644597
24083285
41313298
74643041
1.4490479e+08
3.1332143e+08
8.0658845e+08
2.8270775e+09
1.8742198e+10
3062.541
6318.9846
16766.637
44093.116
86954.579
125973.92
159917.45
184085.85
191720.11
187463.85
207573.72
339417.73
662162.14
1068702.4
1545504.7
2030000.2
2558385.3
3257367.8
4345720.8
6168246.3
9280586.3
14647464
24088644
41322695
74659544
1.4493484e+08
3.1337957e+08
8.0670925e+08
2.8273179e+09
1.8746945e+10
3056.2826
6300.0143
16694.905
43896.765
86731.102
125771.34
159744.97
183945
191616.78
187364.72
207471.55
339350.49
662139.43
1068754.7
1545187.7
2029127.1
2557154.1
3256149.4
4344925.9
6168258.8
9281782
14650329
24093998
41332084
74676039
1.4496489e+08
3.1343776e+08
8.0683045e+08
2.8275613e+09
1.8751685e+10
3049.9998
6281.063
16623.419
43700.841
86507.337
125568.41
159572.21
183803.97
191513.33
187265.54
207369.72
339284.08
662116.79
1068805.5
1544868.2
2028252.2
2555922.7
3254932
4344132
6168270.9
9282974.9
14653188
24099342
41341458
74692512
1.4499491e+08
3.1349596e+08
8.069519e+08
2.8278072e+09
1.8756415e+10
3043.6907
6262.1279
16552.174
43505.347
86283.284
125365.13
159399.16
183662.76
191409.76
187166.28
207268.22
339218.48
662094.17
1068855
1544546.2
2027376
2554691.6
3253716.2
4343340.3
6168284.8
9284168.4
14656045
24104682
41350826
74708976
1.4502493e+08
3.1355419e+08
8.0707367e+08
2.8280558e+09
1.8761138e+10
3037.3538
6243.2061
16481.169
43310.283
86058.941
125161.5
159225.82
183521.37
191306.06
187066.96
207167.06
339153.67
662071.49
1068902.9
1544221.5
2026498.1
2553460.4
3252501.4
4342549.5
6168298.3
9285359
14658896
24110012
41360176
74725415
1.4505492e+08
3.1361241e+08
8.0719569e+08
2.8283069e+09
1.876585e+10
3030.9871
6224.2949
16410.399
43115.65
85834.307
124957.52
159052.19
183379.79
191202.23
186967.57
207066.22
339089.64
662048.72
1068949.4
1543894.2
2025618.5
2552229.4
3251288
4341760.7
6168313
9286549.1
14661745
24115335
41369517
74741839
1.450849e+08
3.1367066e+08
8.0731802e+08
2.8285606e+09
1.8770552e+10
3024.5892
6205.3912
16339.859
42921.448
85609.384
124753.17
158878.25
183238.01
191098.27
186868.09
206965.71
339026.37
662025.78
1068994.5
1543564.1
2024737
2550997.9
3250075.4
4340972.7
6168327.1
9287736.1
14664586
24120646
41378838
74758237
1.4511485e+08
3.1372889e+08
8.0744055e+08
2.8288166e+09
1.8775242e+10
3018.1583
6186.4922
16269.548
42727.679
85384.168
124548.46
158704.01
183096.05
190994.17
186768.54
206865.53
338963.86
662002.66
1069038.4
1543231.2
2023853.8
2549766.7
3248864.4
4340186.7
6168342.9
9288923.2
14667425
24125953
41388152
74774623
1.4514478e+08
3.1378715e+08
8.0756335e+08
2.8290748e+09
1.8779921e+10
3011.6926
6167.5948
16199.461
42534.343
85158.663
124343.38
158529.45
182953.88
190889.92
186668.9
206765.68
338902.11
661979.27
1069080.3
1542895.3
2022968.8
2548535.1
3247654.1
4339401.4
6168357.9
9290106.8
14670257
24131246
41397445
74790978
1.4517468e+08
3.1384539e+08
8.0768633e+08
2.8293351e+09
1.8784587e+10
3005.1906
6148.6959
16129.596
42341.441
84932.864
124137.93
158354.57
182811.51
190785.51
186569.16
206666.14
338841.13
661955.59
1069120.1
1542556.6
2022081.9
2547303.4
3246445.2
4338618
6168374
9291289.8
14673086
24136533
41406727
74807319
1.4520456e+08
3.1390364e+08
8.0780958e+08
2.8295979e+09
1.8789242e+10
2998.6506
6129.7924
16059.947
42148.972
84706.773
123932.11
158179.37
182668.93
190680.95
186469.33
206566.94
338780.89
661931.6
1069157.8
1542214.8
2021193
2546071.4
3245236.8
4337835.1
6168389.2
9292469.1
14675907
24141808
41415989
74823630
1.452344e+08
3.1396187e+08
8.0793299e+08
2.8298628e+09
1.8793884e+10
2992.071
6110.8814
15990.511
41956.942
84480.386
123725.89
158003.84
182526.13
190576.22
186369.39
206468.06
338721.42
661907.33
1069193.5
1541870.1
2020302.5
2544839.4
3244030
4337054.2
6168406
9293648.6
14678726
24147077
41425243
74839928
1.4526423e+08
3.1402013e+08
8.0805667e+08
2.8301299e+09
1.8798516e+10
2985.4502
6091.9599
15921.283
41765.334
84253.706
123519.31
157827.97
182383.12
190471.32
186269.35
206369.5
338662.71
661882.73
1069227
1541522.5
2019410.1
2543607.1
3242823.7
4336273.6
6168421.4
9294823.8
14681537
24152332
41434473
74856193
1.4529401e+08
3.1407834e+08
8.0818049e+08
2.8303991e+09
1.8803136e+10
2978.7868
6073.0247
15852.259
41574.192
84026.728
123312.28
157651.76
182239.89
190366.24
186169.19
206271.26
338604.76
661857.81
1069258.4
1541172
2018515.9
2542374.9
3241618.9
4335494.9
6168437.7
9295998.1
14684344
24157580
41443692
74872441
1.4532378e+08
3.1413657e+08
8.0830461e+08
2.8306711e+09
1.8807746e+10
2972.0791
6054.0726
15783.433
41383.514
83799.451
123104.8
157475.21
182096.43
190260.98
186068.92
206173.34
338547.57
661832.56
1069287.7
1540818.4
2017619.8
2541142.3
3240414.7
4334716.4
6168452.8
9297168.1
14687142
24162813
41452888
74888653
1.4535349e+08
3.1419476e+08
8.0842886e+08
2.8309451e+09
1.8812343e+10
2965.3257
6035.1004
15714.802
41193.3
83571.878
122896.85
157298.29
181952.74
190155.52
185968.51
206075.74
338491.17
661807.01
1069314.8
1540462
2016722.1
2539909.9
3239212.2
4333940.3
6168469.6
9298338.5
14689939
24168042
41462075
74904852
1.4538319e+08
3.1425295e+08
8.0855337e+08
2.8312216e+09
1.8816932e+10
2958.5252
6016.105
15646.361
41003.549
83344.008
122688.44
157121.02
181808.82
190049.86
185867.98
205978.47
338435.52
661781.1
1069339.8
1540102.5
2015822.4
2538677.2
3238010.3
4333164.6
6168485.2
9299504.6
14692727
24173255
41471238
74921014
1.4541283e+08
3.1431109e+08
8.0867799e+08
2.8315002e+09
1.8821508e+10
2951.6762
5997.0832
15578.104
40814.258
83115.841
122479.56
156943.39
181664.65
189944
185767.3
205881.5
338380.64
661754.82
1069362.5
1539740
2014920.9
2537444.6
3236810
4332390.9
6168502.1
9300670.2
14695512
24178462
41480390
74937160
1.4544246e+08
3.1436925e+08
8.0880292e+08
2.8317815e+09
1.8826075e+10
2944.7774
5978.0321
15510.027
40625.426
82887.38
122270.21
156765.38
181520.24
189837.91
185666.47
205784.85
338326.51
661728.13
1069383
1539374.4
2014017.4
2536211.4
3235609.9
4331617.2
6168517.3
9301831
14698288
24183654
41489518
74953267
1.4547204e+08
3.1442734e+08
8.0892794e+08
2.8320646e+09
1.8830628e+10
2937.8276
5958.9487
15442.122
40437.051
82658.624
122060.38
156586.98
181375.58
189731.6
185565.48
205688.51
338273.15
661701.08
1069401.3
1539005.8
2013112.1
2534978.3
3234411.5
4330845.7
6168534.2
9302992.2
14701062
24188841
41498638
74969363
1.455016e+08
3.1448546e+08
8.0905322e+08
2.83235e+09
1.8835172e+10
2930.8254
5939.8298
15374.385
40249.132
82429.574
121850.08
156408.2
181230.66
189625.06
185464.33
205592.47
338220.54
661673.61
1069417.3
1538634.1
2012204.8
2533744.8
3233213.4
4330074.2
6168549.3
9304148.2
14703826
24194011
41507731
74985417
1.4553111e+08
3.145435e+08
8.0917853e+08
2.8326369e+09
1.8839701e+10
2923.7699
5920.6724
15306.811
40061.667
82200.23
121639.29
156229.03
181085.48
189518.27
185363
205496.74
338168.69
661645.73
1069431
1538259.4
2011295.8
2532511.4
3232016.8
4329304.5
6168565.1
9305303
14706585
24199173
41516811
75001452
1.4556059e+08
3.1460154e+08
8.0930407e+08
2.8329261e+09
1.8844216e+10
2916.6598
5901.4734
15239.395
39874.653
81970.591
121428.01
156049.46
180940.04
189411.24
185261.48
205401.32
338117.6
661617.4
1069442.3
1537881.6
2010384.7
2531277.4
3230820.5
4328534.6
6168578.9
9306452.3
14709335
24204318
41525863
75017443
1.4559001e+08
3.146595e+08
8.0942959e+08
2.8332166e+09
1.8848715e+10
2909.4941
5882.2298
15172.131
39688.089
81740.659
121216.25
155869.48
180794.32
189303.94
185159.78
205306.2
338067.28
661588.67
1069451.4
1537500.8
2009472.1
2530043.7
3229625.9
4327767
6168594.5
9307602.1
14712083
24209457
41534906
75033421
1.456194e+08
3.1471747e+08
8.0955533e+08
2.8335091e+09
1.8853203e+10
2902.2721
5862.939
15105.014
39501.973
81510.431
121003.99
155689.08
180648.33
189196.38
185057.88
205211.38
338017.72
661559.51
1069458.2
1537116.8
2008557.4
2528809.6
3228431.9
4326999.5
6168608.3
9308746.7
14714820
24214580
41543922
75049358
1.4564874e+08
3.1477536e+08
8.0968111e+08
2.8338032e+09
1.8857676e+10
2894.9927
5843.5982
15038.038
39316.3
81279.908
120791.23
155508.26
180502.06
189088.54
184955.78
205116.86
337968.93
661529.93
1069462.6
1536729.9
2007641
2527575.6
3227239.3
4326233.9
6168623.3
9309890.6
14717554
24219696
41552926
75065277
1.4567806e+08
3.1483327e+08
8.0980717e+08
2.8340998e+09
1.8862139e+10
2887.6552
5824.2046
14971.197
39131.07
81049.09
120577.98
155327.02
180355.5
188980.42
184853.46
205022.64
337920.9
661499.9
1069464.7
1536339.7
2006722.4
2526341.1
3226047
4325468.2
6168636.2
9311029.2
14720279
24224796
41561903
75081156
1.4570731e+08
3.1489111e+08
8.0993327e+08
2.8343979e+09
1.8866587e+10
2880.2589
5804.7557
14904.486
38946.281
80817.975
120364.22
155145.34
180208.64
188872
184750.92
204928.71
337873.65
661469.45
1069464.5
1535946.7
2005802.3
2525106.7
3224856.4
4324704.7
6168650.8
9312168.1
14723001
24229890
41570871
75097017
1.4573654e+08
3.1494894e+08
8.1005954e+08
2.8346981e+09
1.8871027e+10
2872.8033
5785.2488
14837.901
38761.93
80586.564
120149.95
154963.22
180061.49
188763.28
184648.15
204835.06
337827.16
661438.53
1069461.9
1535550.4
2004880.1
2523871.9
3223666
4323941.1
6168663.3
9313301.4
14725713
24234966
41579808
75112832
1.457657e+08
3.1500666e+08
8.101858e+08
2.8349999e+09
1.8875452e+10
2865.2877
5765.6814
14771.436
38578.016
80354.855
119935.18
154780.65
179914.04
188654.25
184545.14
204741.71
337781.44
661407.16
1069457
1535151.1
2003956.2
2522637.1
3222477.2
4323179.1
6168676.5
9314433.3
14728420
24240033
41588731
75128622
1.4579482e+08
3.1506436e+08
8.1031224e+08
2.8353038e+09
1.8879865e+10
2857.7117
5746.0513
14705.086
38394.535
80122.847
119719.89
154597.63
179766.29
188544.9
184441.89
204648.64
337736.48
661375.29
1069449.6
1534748.6
2003030.2
2521401.8
3221288.5
4322416.8
6168687.4
9315559.4
14731116
24245082
41597625
75144365
1.4582388e+08
3.1512196e+08
8.1043867e+08
2.8356092e+09
1.8884264e+10
2850.075
5726.3563
14638.848
38211.486
79890.537
119504.09
154414.14
179618.22
188435.22
184338.39
204555.85
337692.29
661342.99
1069439.9
1534343.2
2002102.6
2520166.8
3220101.4
4321656.7
6168699.8
9316685.6
14733810
24250125
41606508
75160092
1.4585291e+08
3.1517955e+08
8.1056528e+08
2.8359166e+09
1.8888654e+10
2842.3774
5706.5943
14572.715
38028.866
79657.926
119287.78
154230.19
179469.83
188325.2
184234.62
204463.34
337648.87
661310.2
1069427.7
1533934.6
2001173.1
2518931.4
3218914.8
4320896.4
6168710
9317806
14736493
24255150
41615364
75175774
1.4588188e+08
3.1523706e+08
8.1069189e+08
2.8362255e+09
1.8893029e+10
2834.6188
5686.7635
14506.684
37846.674
79425.011
119070.94
154045.76
179321.12
188214.84
184130.59
204371.11
337606.21
661276.92
1069413.2
1533523
2000241.8
2517696.1
3217729.7
4320137.9
6168721
9318925.2
14739172
24260167
41624205
75191434
1.4591081e+08
3.1529455e+08
8.1081871e+08
2.8365365e+09
1.8897392e+10
2826.7991
5666.862
14440.75
37664.909
79191.79
118853.58
153860.85
179172.08
188104.12
184026.29
204279.14
337564.32
661243.14
1069396.2
1533108.1
1999308.4
2516460.2
3216544.8
4319379.1
6168730
9320038.8
14741840
24265166
41633018
75207051
1.4593969e+08
3.1535196e+08
8.1094551e+08
2.8368488e+09
1.8901742e+10
2818.9184
5646.888
14374.911
37483.568
78958.263
118635.7
153675.45
179022.71
187993.05
183921.71
204187.45
337523.21
661208.9
1069376.9
1532690.3
1998373.5
2515224.5
3215361.4
4318622.4
6168740.2
9321152.2
14744506
24270159
41641818
75222647
1.4596853e+08
3.1540933e+08
8.1107237e+08
2.8371624e+09
1.8906078e+10
2810.9769
5626.8401
14309.163
37302.651
78724.427
118417.29
153489.55
178873
187881.61
183816.84
204096.02
337482.87
661174.16
1069355.1
1532269.4
1997436.6
2513988.4
3214178.3
4317865.4
6168748.2
9322259.5
14747160
24275132
41650588
75238195
1.4599729e+08
3.1546658e+08
8.1119915e+08
2.8374769e+09
1.8910396e+10
2802.9749
5606.7167
14243.504
37122.157
78490.279
118198.36
153303.16
178722.96
187769.8
183711.67
204004.85
337443.3
661138.91
1069330.8
1531845.4
1996497.9
2512752.4
3212996.7
4317109.9
6168756.5
9323365
14749809
24280095
41659340
75253714
1.4602601e+08
3.155238e+08
8.1132599e+08
2.837793e+09
1.89147e+10
2794.9128
5586.5168
14177.932
36942.083
78255.818
117978.89
153116.26
178572.56
187657.6
183606.21
203913.94
337404.49
661103.13
1069304.1
1531418.2
1995557.3
2511516
3211815.2
4316354.2
6168762.5
9324464.8
14752447
24285040
41668063
75269187
1.4605465e+08
3.155809e+08
8.1145279e+08
2.8381102e+09
1.8918989e+10
2786.7912
5566.2392
14112.444
36762.43
78021.041
117758.9
152928.84
178421.82
187545.02
183500.43
203823.28
337366.47
661066.86
1069274.9
1530988.1
1994615.2
2510279.9
3210635.5
4315600.4
6168769.7
9325564.1
14755082
24289979
41676773
75284639
1.4608327e+08
3.1563799e+08
8.1157971e+08
2.838429e+09
1.8923267e+10
2778.6106
5545.8833
14047.037
36583.197
77785.945
117538.37
152740.91
178270.73
187432.05
183394.35
203732.86
337329.22
661030.06
1069243.3
1530554.8
1993671.2
2509043.5
3209456.4
4314846.7
6168774.8
9326657.8
14757706
24294899
41685454
75300045
1.4611181e+08
3.1569498e+08
8.1170659e+08
2.838749e+09
1.8927531e+10
2770.372
5525.4481
13981.711
36404.383
77550.528
117317.31
152552.45
178119.27
187318.68
183287.95
203642.69
337292.76
660992.73
1069209.2
1530118.5
1992725.5
2507807.4
3208278.7
4314094.8
6168780.9
9327750.3
14760327
24299811
41694119
75315426
1.4614031e+08
3.1575194e+08
8.1183359e+08
2.8390709e+09
1.8931783e+10
2762.0762
5504.933
13916.465
36225.99
77314.789
117095.73
152363.46
177967.45
187204.9
183181.23
203552.75
337257.08
660954.86
1069172.5
1529678.9
1991777.8
2506570.7
3207101.4
4313342.7
6168784.9
9328837.4
14762936
24304704
41702755
75330758
1.4616874e+08
3.1580876e+08
8.1196049e+08
2.8393938e+09
1.893602e+10
2753.7241
5484.3376
13851.299
36048.018
77078.724
116873.61
152173.93
177815.27
187090.72
183074.17
203463.04
337222.2
660916.5
1069133.4
1529236.4
1990828.5
2505334.2
3205925.6
4312592.6
6168790.1
9329923.9
14765542
24309590
41711377
75346066
1.4619713e+08
3.1586555e+08
8.1208748e+08
2.8397182e+09
1.8940247e+10
2745.3168
5463.6614
13786.213
35870.467
76842.331
116650.95
151983.86
177662.72
186976.14
182966.79
203373.56
337188.12
660877.58
1069091.8
1528790.7
1989877.3
2504097.4
3204750.2
4311842.2
6168792.7
9331004.2
14768137
24314456
41719967
75361322
1.4622543e+08
3.159222e+08
8.1221432e+08
2.8400435e+09
1.8944459e+10
2736.8557
5442.9042
13721.207
35693.339
76605.606
116427.77
151793.24
177509.8
186861.14
182859.06
203284.29
337154.84
660838.13
1069047.7
1528341.9
1988924.5
2502860.9
3203576.3
4311093.3
6168795.9
9332082.6
14770726
24319312
41728541
75376551
1.462537e+08
3.159788e+08
8.1234125e+08
2.8403704e+09
1.8948659e+10
2728.3421
5422.066
13656.281
35516.633
76368.546
116204.05
151602.07
177356.5
186745.72
182751
203195.22
337122.39
660798.1
1069001
1527890
1987969.7
2501623.8
3202402.6
4310344.1
6168796.6
9333154.8
14773304
24324149
41737083
75391728
1.4628188e+08
3.1603528e+08
8.1246805e+08
2.8406982e+09
1.8952843e+10
2719.7774
5401.1469
13591.435
35340.353
76131.15
115979.81
151410.34
177202.83
186629.9
182642.59
203106.35
337090.77
660757.57
1068951.8
1527435.1
1987013.4
2500387.2
3201230.6
4309597
6168798.5
9334226.6
14775878
24328979
41745613
75406883
1.4631003e+08
3.1609172e+08
8.1259494e+08
2.8410273e+09
1.8957018e+10
2711.1633
5380.1471
13526.669
35164.501
75893.414
115755.04
151218.06
177048.77
186513.65
182533.83
203017.67
337060.01
660716.48
1068900
1526977
1986055.2
2499150.3
3200059.2
4308849.7
6168798
9335292.1
14778441
24333788
41754109
75421989
1.463381e+08
3.1614804e+08
8.1272171e+08
2.8413572e+09
1.8961176e+10
2702.5015
5359.0667
13461.985
34989.079
75655.336
115529.74
151025.2
176894.34
186397
182424.71
202929.15
337030.13
660674.85
1068845.8
1526515.9
1985095.5
2497913.6
3198889.2
4308104.1
6168798.3
9336356.3
14780999
24338589
41762590
75437067
1.4636613e+08
3.162043e+08
8.1284852e+08
2.8416885e+09
1.8965322e+10
2693.7937
5337.9061
13397.384
34814.089
75416.915
115303.93
150831.78
176739.52
186279.94
182315.25
202840.79
337001.14
660632.67
1068788.9
1526051.6
1984133.8
2496676.5
3197719.6
4307358.2
6168796.1
9337414.4
14783546
24343369
41771038
75452094
1.4639407e+08
3.1626043e+08
8.1297513e+08
2.8420202e+09
1.896945e+10
2685.042
5316.6656
13332.866
34639.537
75178.147
115077.59
150637.78
176584.32
186162.48
182205.42
202752.57
336973.11
660590
1068729.6
1525584.4
1983170.6
2495439.9
3196551.7
4306614.5
6168795.4
9338472.4
14786090
24348144
41779474
75467097
1.4642197e+08
3.1631651e+08
8.1310176e+08
2.8423528e+09
1.8973566e+10
2676.2483
5295.3458
13268.434
34465.424
74939.03
114850.74
150443.21
176428.74
186044.61
182095.23
202664.47
336946.06
660546.83
1068667.8
1525114
1982205.7
2494203
3195384.3
4305870.6
6168792.2
9339523.9
14788622
24352898
41787876
75482047
1.4644979e+08
3.1637244e+08
8.132282e+08
2.8426858e+09
1.8977665e+10
2667.4147
5273.9471
13204.089
34291.755
74699.561
114623.38
150248.06
176272.78
185926.35
181984.67
202576.46
336920.03
660503.16
1068603.4
1524640.7
1981239.2
2492966.4
3194218.5
4305128.4
6168789.7
9340574.2
14791149
24357643
41796262
75496969
1.4647755e+08
3.1642832e+08
8.1335467e+08
2.8430202e+09
1.8981751e+10
2658.5437
5252.4705
13139.831
34118.534
74459.738
114395.51
150052.33
176116.43
185807.71
181873.74
202488.51
336895.08
660458.96
1068536.5
1524164.2
1980270.7
2491729.3
3193052.9
4304385.9
6168784.6
9341618.1
14793665
24362367
41804614
75511837
1.4650523e+08
3.1648406e+08
8.1348096e+08
2.8433551e+09
1.8985821e+10
2649.6374
5230.9167
13075.661
33945.765
74219.558
114167.14
149856.02
175959.7
185688.69
181762.45
202400.6
336871.29
660414.31
1068467.1
1523684.9
1979300.8
2490492.7
3191889.1
4303645.5
6168781.2
9342662.2
14796178
24367086
41812955
75526684
1.4653288e+08
3.1653976e+08
8.136073e+08
2.843691e+09
1.8989882e+10
2640.6984
5209.2864
13011.583
33773.455
73979.021
113938.28
149659.12
175802.59
185569.31
181650.79
202312.67
336848.71
660369.16
1068395.3
1523202.5
1978329.2
2489255.9
3190725.7
4302904.8
6168775.1
9343699.6
14798679
24371783
41821261
75541473
1.4656042e+08
3.1659529e+08
8.1373341e+08
2.8440274e+09
1.8993926e+10
2631.7293
5187.5805
12947.597
33601.609
73738.124
113708.93
149461.64
175645.1
185449.57
181538.76
202224.7
336827.45
660323.55
1068321
1522717.2
1977356.1
2488019.5
3189564
4302165.9
6168769.6
9344735.2
14801174
24376470
41829549
75556232
1.4658792e+08
3.1665075e+08
8.1385953e+08
2.8443651e+09
1.8997959e+10
2622.7326
5165.7998
12883.705
33430.231
73496.866
113479.1
149263.57
175487.23
185329.49
181426.37
202136.62
336807.62
660277.49
1068244.1
1522228.8
1976381.2
2486782.6
3188402.5
4301426.5
6168761.5
9345764.3
14803658
24381137
41837806
75570938
1.4661534e+08
3.1670607e+08
8.1398546e+08
2.8447032e+09
1.9001977e+10
2613.7111
5143.9453
12819.91
33259.331
73255.246
113248.8
149064.91
175329
185209.09
181313.6
202048.37
336789.36
660231.04
1068165
1521737.7
1975405
2485546.3
3187242.9
4300689.5
6168755.2
9346794
14806140
24385800
41846051
75585624
1.4664272e+08
3.1676133e+08
8.141114e+08
2.8450424e+09
1.9005985e+10
2604.6676
5122.018
12756.214
33088.913
73013.263
113018.03
148865.67
175170.39
185088.38
181200.46
201959.88
336772.81
660184.15
1068083.4
1521243.7
1974427
2484309.7
3186083.8
4299952.2
6168746.4
9347817.4
14808610
24390441
41854263
75600255
1.4667e+08
3.1681645e+08
8.1423713e+08
2.8453819e+09
1.9009978e+10
2595.605
5100.019
12692.7
32918.984
72770.913
112786.82
148665.83
175011.41
184967.39
181086.95
201871.05
336758.16
660136.81
1067999.5
1520746.9
1973447.7
2483073.5
3184926.2
4299216.7
6168738.4
9348839.3
14811075
24395073
41862458
75614856
1.4669725e+08
3.168715e+08
8.1436286e+08
2.8457225e+09
1.9013959e+10
2586.5262
5077.9494
12629.394
32749.552
72528.196
112555.16
148465.42
174852.07
184846.13
180973.08
201781.78
336745.6
660088.97
1067913.1
1520247.2
1972466.5
2481836.9
3183768.9
4298480.7
6168727.6
9349854.8
14813527
24399684
41870619
75629405
1.467244e+08
3.169264e+08
8.1448838e+08
2.8460634e+09
1.9017925e+10
2577.4343
5055.81
12566.296
32580.624
72285.111
112323.07
148264.41
174692.37
184724.62
180858.86
201691.95
336735.41
660040.68
1067824.5
1519744.9
1971484.2
2480600.9
3182613.4
4297747.1
6168718.5
9350870.5
14815978
24404290
41878769
75643934
1.4675152e+08
3.1698126e+08
8.1461391e+08
2.8464052e+09
1.9021881e+10
2568.3324
5033.6019
12503.404
32412.207
72041.658
112090.56
148062.82
174532.32
184602.88
180744.29
201601.4
336727.88
659991.84
1067733.6
1519239.8
1970500.3
2479364.7
3181458.4
4297013.1
6168706.8
9351879.9
14818417
24408876
41886887
75658409
1.4677855e+08
3.1703596e+08
8.1473918e+08
2.846747e+09
1.9025821e+10
2559.2236
5011.3262
12440.719
32244.313
71797.834
111857.65
147860.64
174371.93
184480.95
180629.38
201509.97
336723.35
659942.4
1067640.4
1518732.1
1969515.1
2478128.9
3180304.9
4296280.9
6168696
9352888.1
14820852
24413452
41894987
75672854
1.4680553e+08
3.1709058e+08
8.1486439e+08
2.8470896e+09
1.9029749e+10
2550.1111
4988.9839
12378.24
32076.947
71553.643
111624.34
147657.88
174211.2
184358.85
180514.15
201417.44
336722.2
659892.22
1067545
1518221.7
1968528.2
2476892.8
3179151.7
4295548.3
6168682.7
9353890.2
14823275
24418009
41903055
75687246
1.4683242e+08
3.1714505e+08
8.1498934e+08
2.8474321e+09
1.9033659e+10
2540.998
4966.5761
12315.967
31910.119
71309.082
111390.66
147454.55
174050.14
184236.61
180398.85
201324.66
336721.61
659841.23
1067447.5
1517708.9
1967540.3
2475657.3
3178000.4
4294818.1
6168671.3
9354892.8
14825697
24422561
41911112
75701617
1.4685927e+08
3.1719947e+08
8.1511428e+08
2.8477753e+09
1.9037559e+10
2531.8876
4944.104
12253.901
31743.841
71064.152
111156.61
147250.63
173888.77
184114.25
180283.57
201231.76
336720.99
659789.36
1067347.8
1517193.6
1966550.9
2474421.7
3176849.6
4294087.6
6168657.6
9355889.6
14828107
24427094
41919137
75715937
1.4688604e+08
3.1725374e+08
8.1523898e+08
2.8481186e+09
1.9041445e+10
2522.7833
4921.5689
12192.042
31578.119
70818.852
110922.21
147046.13
173727.08
183991.8
180168.31
201138.7
336720.29
659736.63
1067246
1516676
1965560.4
2473186.6
3175700.5
4293359
6168644.7
9356885.1
14830513
24431617
41927147
75730229
1.4691275e+08
3.1730794e+08
8.1536366e+08
2.8484627e+09
1.9045319e+10
2513.6882
4898.9722
12130.389
31412.964
70573.184
110687.37
146841.2
173565.08
183869.28
180053.09
201045.37
336719.48
659683.03
1067142.2
1516155.8
1964568.4
2471951.2
3174551.7
4292630
6168629.4
9357874.6
14832908
24436122
41935126
75744471
1.4693939e+08
3.17362e+08
8.1548812e+08
2.848807e+09
1.9049179e+10
2504.6059
4876.3152
12068.942
31248.387
70327.155
110452.07
146635.87
173402.81
183746.73
179937.94