/*--------------------------------*- C++ -*----------------------------------*\
| =========                 |                                                 |
| \\      /  F ield         | OpenFOAM: The Open Source CFD Toolbox           |
|  \\    /   O peration     | Version:  v2012                                 |
|   \\  /    A nd           | Website:  www.openfoam.com                      |
|    \\/     M anipulation  |                                                 |
\*---------------------------------------------------------------------------*/
FoamFile
{
    version     2.0;
    format      ascii;
    class       surfaceScalarField;
    location    "600";
    object      phi;
}
// * * * * * * * * * * * * * * * * * * * * * * * * * * * * * * * * * * * * * //

dimensions      [1 0 -1 0 0 0 0];
oriented        oriented;


internalField   nonuniform List<scalar> 
47170
(
-1.1370703e-08
-4.3088764e-05
-1.8444902e-08
-3.5594901e-05
-1.9092287e-08
-2.8200484e-05
-1.4094589e-08
-2.0547232e-05
-6.822906e-09
-1.3813241e-05
-2.0377541e-09
-9.1056233e-06
1.450113e-10
-6.0594367e-06
8.7247715e-10
-4.118938e-06
9.42025e-10
-2.860021e-06
9.7983744e-10
-2.0312103e-06
9.7719934e-10
-1.4453782e-06
8.5471351e-10
-9.9848278e-07
7.299655e-10
-6.7643539e-07
6.0101384e-10
-4.6033988e-07
4.7291191e-10
-3.1263609e-07
3.5858338e-10
-2.1099149e-07
2.6325993e-10
-1.4192853e-07
1.8754161e-10
-9.5168719e-08
1.3000258e-10
-6.3573513e-08
8.7747726e-11
-4.2305692e-08
5.7624784e-11
-2.8028812e-08
3.6721453e-11
-1.8452702e-08
2.2628991e-11
-1.2034814e-08
1.3401155e-11
-7.7423025e-09
7.5443654e-12
-4.8824149e-09
3.949906e-12
-2.9887037e-09
1.8490149e-12
-1.7460124e-09
7.00659e-13
-9.4092281e-10
1.5613239e-13
-4.2876916e-10
-1.1152058e-10
-1.2768613e-08
-4.3075996e-05
-2.1894973e-08
-3.5585775e-05
-2.3020562e-08
-2.8199359e-05
-1.4096735e-08
-2.0556156e-05
-4.1943751e-09
-1.3823144e-05
1.2709395e-09
-9.1110886e-06
3.494788e-09
-6.0616605e-06
4.0076031e-09
-4.1194508e-06
3.6822812e-09
-2.8596956e-06
2.9872992e-09
-2.0305154e-06
2.2389465e-09
-1.4446298e-06
1.6463674e-09
-9.9789022e-07
1.2124336e-09
-6.7600142e-07
8.7347808e-10
-4.6000096e-07
6.1039313e-10
-3.1237298e-07
4.197448e-10
-2.1080087e-07
2.8538191e-10
-1.4179415e-07
1.9161266e-10
-9.5074978e-08
1.2687664e-10
-6.3508773e-08
8.2659573e-11
-4.2261498e-08
5.283811e-11
-2.799899e-08
3.2982435e-11
-1.8432862e-08
2.0011943e-11
-1.2021844e-08
1.1697414e-11
-7.733998e-09
6.5057172e-12
-4.8772281e-09
3.3631089e-12
-2.9855653e-09
1.5371909e-12
-1.7441982e-09
5.574404e-13
-9.3995265e-10
1.1215912e-13
-4.2833068e-10
-1.1140843e-10
-1.334603e-08
-4.306265e-05
-2.286362e-08
-3.5576257e-05
-2.3673036e-08
-2.8198549e-05
-1.3808251e-08
-2.0566021e-05
-3.4176236e-09
-1.3833534e-05
2.2136006e-09
-9.1167198e-06
4.521314e-09
-6.0639682e-06
4.8963503e-09
-4.1198258e-06
4.3629333e-09
-2.8591621e-06
3.4639808e-09
-2.0296164e-06
2.5372999e-09
-1.4437031e-06
1.7976131e-09
-9.9715056e-07
1.2554459e-09
-6.7545922e-07
8.4805327e-10
-4.595936e-07
5.4727689e-10
-3.1207219e-07
3.4105684e-10
-2.1059469e-07
2.0613674e-10
-1.4165922e-07
1.2089082e-10
-9.498977e-08
6.9099505e-11
-6.3456982e-08
3.8730829e-11
-4.2231161e-08
2.1419137e-11
-2.7981684e-08
1.1690946e-11
-1.8423157e-08
6.2991932e-12
-1.201646e-08
3.3171676e-12
-7.7310312e-09
1.6877081e-12
-4.8756059e-09
8.0479941e-13
-2.9846915e-09
3.4435786e-13
-1.7437427e-09
1.1755307e-13
-9.3973126e-10
2.1803136e-14
-4.2823877e-10
-1.1138662e-10
-1.3759297e-08
-4.304889e-05
-2.3511195e-08
-3.5566505e-05
-2.4100464e-08
-2.819796e-05
-1.3654263e-08
-2.0576467e-05
-2.9194198e-09
-1.3844269e-05
2.9523412e-09
-9.1225916e-06
5.2715728e-09
-6.0662874e-06
5.5445122e-09
-4.1200988e-06
4.8836986e-09
-2.8585013e-06
3.878547e-09
-2.0286113e-06
2.8645273e-09
-1.442689e-06
2.0384455e-09
-9.9632451e-07
1.4302385e-09
-6.7485099e-07
9.7812765e-10
-4.5914152e-07
6.4731311e-10
-3.1174135e-07
4.2035793e-10
-2.1036777e-07
2.6962911e-10
-1.4150848e-07
1.7107452e-10
-9.4891252e-08
1.0758256e-10
-6.3393487e-08
6.707213e-11
-4.2190683e-08
4.139274e-11
-2.7956007e-08
2.5145636e-11
-1.8406935e-08
1.4955496e-11
-1.2006275e-08
8.6110587e-12
-7.7247038e-09
4.7377897e-12
-4.8717397e-09
2.4266895e-12
-2.9823895e-09
1.1037515e-12
-1.7424285e-09
3.9996668e-13
-9.390354e-10
8.0939391e-14
-4.2792537e-10
-1.1130568e-10
-1.3993599e-08
-4.3034897e-05
-2.381446e-08
-3.5556684e-05
-2.4245042e-08
-2.8197529e-05
-1.3539183e-08
-2.0587173e-05
-2.6414942e-09
-1.3855167e-05
3.3984535e-09
-9.1286315e-06
5.711861e-09
-6.0686008e-06
5.9222529e-09
-4.1203092e-06
5.1921737e-09
-2.8577712e-06
4.1315632e-09
-2.0275507e-06
3.0694932e-09
-1.4416269e-06
2.1928326e-09
-9.9544787e-07
1.5426889e-09
-6.7420083e-07
1.060153e-09
-4.5865901e-07
7.0701873e-10
-3.1138821e-07
4.6328641e-10
-2.1012407e-07
2.9998162e-10
-1.4134517e-07
1.9216067e-10
-9.4783462e-08
1.2199132e-10
-6.3323319e-08
7.6801787e-11
-4.2145517e-08
4.7873717e-11
-2.7927083e-08
2.9396619e-11
-1.8388473e-08
1.766583e-11
-1.1994549e-08
1.0278358e-11
-7.7173257e-09
5.7034351e-12
-4.8671698e-09
2.9404067e-12
-2.9796319e-09
1.3434241e-12
-1.7408352e-09
4.8825819e-13
-9.3818377e-10
9.9924003e-14
-4.2753955e-10
-1.1120576e-10
-1.4125758e-08
-4.3020771e-05
-2.3962127e-08
-3.5546848e-05
-2.4302321e-08
-2.8197189e-05
-1.3471868e-08
-2.0598003e-05
-2.4748646e-09
-1.3866164e-05
3.6843012e-09
-9.1347907e-06
5.993423e-09
-6.0709099e-06
6.1667895e-09
-4.1204826e-06
5.3957224e-09
-2.8570001e-06
4.3024452e-09
-2.0264574e-06
3.2107247e-09
-1.4405352e-06
2.300863e-09
-9.9453803e-07
1.6222763e-09
-6.7352222e-07
1.1184758e-09
-4.5815524e-07
7.4931421e-10
-3.1101903e-07
4.9342806e-10
-2.0986821e-07
3.2105155e-10
-1.4117279e-07
2.0658973e-10
-9.4669026e-08
1.3166175e-10
-6.3248387e-08
8.3140598e-11
-4.2097016e-08
5.1933002e-11
-2.7895877e-08
3.1926449e-11
-1.8368481e-08
1.9197026e-11
-1.1981822e-08
1.1168433e-11
-7.7093073e-09
6.1965738e-12
-4.8622016e-09
3.1937353e-12
-2.9766346e-09
1.4587005e-12
-1.7391044e-09
5.3007186e-13
-9.3725915e-10
1.0846805e-13
-4.2712079e-10
-1.1109729e-10
-1.4194514e-08
-4.3006577e-05
-2.402457e-08
-3.5537018e-05
-2.432149e-08
-2.8196892e-05
-1.3440225e-08
-2.0608885e-05
-2.3793657e-09
-1.3877225e-05
3.8656287e-09
-9.1410357e-06
6.174545e-09
-6.0732188e-06
6.3261663e-09
-4.1206342e-06
5.5295545e-09
-2.8562035e-06
4.4158159e-09
-2.0253437e-06
3.304989e-09
-1.4394243e-06
2.3733449e-09
-9.9360641e-07
1.6758808e-09
-6.7282474e-07
1.1579362e-09
-4.5763731e-07
7.781326e-10
-3.1063921e-07
5.141881e-10
-2.096043e-07
3.3580736e-10
-1.409944e-07
2.1693504e-10
-9.4550178e-08
1.3881161e-10
-6.3170261e-08
8.800565e-11
-4.204623e-08
5.5180378e-11
-2.7863052e-08
3.4043935e-11
-1.8347358e-08
2.0534333e-11
-1.1968315e-08
1.1980264e-11
-7.7007613e-09
6.6616454e-12
-4.856886e-09
3.4397859e-12
-2.9734166e-09
1.5729805e-12
-1.7372406e-09
5.7218149e-13
-9.3626121e-10
1.1741607e-13
-4.2666805e-10
-1.1097988e-10
-1.4227504e-08
-4.2992349e-05
-2.404626e-08
-3.5527199e-05
-2.4332095e-08
-2.8196606e-05
-1.3438297e-08
-2.0619778e-05
-2.3310351e-09
-1.3888332e-05
3.9797247e-09
-9.1473465e-06
6.2923706e-09
-6.0755314e-06
6.4324e-09
-4.1207742e-06
5.619237e-09
-2.8553903e-06
4.4917985e-09
-2.0242163e-06
3.3683228e-09
-1.4383008e-06
2.4219901e-09
-9.9266009e-07
1.7117435e-09
-6.7211447e-07
1.1842213e-09
-4.5710981e-07
7.9722204e-10
-3.102522e-07
5.2783129e-10
-2.0933493e-07
3.4539245e-10
-1.4081195e-07
2.2354993e-10
-9.4428357e-08
1.4329623e-10
-6.3090002e-08
9.0992007e-11
-4.1993943e-08
5.7129406e-11
-2.7829188e-08
3.5284655e-11
-1.8325527e-08
2.1302176e-11
-1.1954333e-08
1.2436173e-11
-7.6919038e-09
6.9190819e-12
-4.8513708e-09
3.5728766e-12
-2.9700749e-09
1.6343421e-12
-1.7353039e-09
5.9458785e-13
-9.3522372e-10
1.2213993e-13
-4.2619721e-10
-1.1085774e-10
-1.4241371e-08
-4.2978108e-05
-2.4050058e-08
-3.551739e-05
-2.4345975e-08
-2.8196311e-05
-1.3460486e-08
-2.0630664e-05
-2.3153595e-09
-1.3899477e-05
4.0490205e-09
-9.1537108e-06
6.3688246e-09
-6.0778512e-06
6.5033599e-09
-4.1209088e-06
5.6798216e-09
-2.8545667e-06
4.5432386e-09
-2.0230797e-06
3.4112413e-09
-1.4371688e-06
2.4549157e-09
-9.9170379e-07
1.7360112e-09
-6.7139555e-07
1.2020442e-09
-4.5657586e-07
8.1022921e-10
-3.0986037e-07
5.372007e-10
-2.0906192e-07
3.5203559e-10
-1.4062677e-07
2.2819183e-10
-9.430453e-08
1.4648219e-10
-6.300829e-08
9.314671e-11
-4.1940621e-08
5.855375e-11
-2.7794596e-08
3.6208906e-11
-1.830319e-08
2.1880487e-11
-1.1940007e-08
1.2787419e-11
-7.6828164e-09
7.1192456e-12
-4.8457061e-09
3.6801668e-12
-2.9666394e-09
1.6842075e-12
-1.7333113e-09
6.1303255e-13
-9.3415559e-10
1.2587231e-13
-4.2571221e-10
-1.1073186e-10
-1.4246155e-08
-4.2963862e-05
-2.404855e-08
-3.5507588e-05
-2.4367791e-08
-2.8195991e-05
-1.350153e-08
-2.064153e-05
-2.3232956e-09
-1.3910655e-05
4.0877381e-09
-9.1601219e-06
6.4175914e-09
-6.080181e-06
6.5506138e-09
-4.1210418e-06
5.7210558e-09
-2.8537372e-06
4.5784297e-09
-2.0219371e-06
3.440505e-09
-1.4360309e-06
2.4772602e-09
-9.9074055e-07
1.7524196e-09
-6.706707e-07
1.2140715e-09
-4.5603753e-07
8.1901698e-10
-3.094653e-07
5.4354612e-10
-2.0878646e-07
3.5654164e-10
-1.4043976e-07
2.313389e-10
-9.4179342e-08
1.4864212e-10
-6.2925587e-08
9.4601706e-11
-4.1886592e-08
5.9513615e-11
-2.7759506e-08
3.682408e-11
-1.828051e-08
2.2264197e-11
-1.1925448e-08
1.3015345e-11
-7.6735739e-09
7.2481917e-12
-4.8399409e-09
3.7463173e-12
-2.9631412e-09
1.7145307e-12
-1.7312814e-09
6.2407755e-13
-9.3306714e-10
1.2830906e-13
-4.2521787e-10
-1.1060355e-10
-1.4247635e-08
-4.2949614e-05
-2.4048218e-08
-3.5497787e-05
-2.4398412e-08
-2.8195641e-05
-1.3557946e-08
-2.0652371e-05
-2.348195e-09
-1.3921865e-05
4.105224e-09
-9.1665753e-06
6.4473419e-09
-6.0825232e-06
6.5819293e-09
-4.1211764e-06
5.7491663e-09
-2.8529044e-06
4.6025869e-09
-2.0207905e-06
3.4605265e-09
-1.4348888e-06
2.4924347e-09
-9.8977248e-07
1.7635118e-09
-6.6994176e-07
1.2221944e-09
-4.5549623e-07
8.2498645e-10
-3.0906808e-07
5.4788975e-10
-2.0850938e-07
3.5965206e-10
-1.4025151e-07
2.3353289e-10
-9.4053237e-08
1.5016205e-10
-6.2842211e-08
9.5633996e-11
-4.1832076e-08
6.0198987e-11
-2.772407e-08
3.7267815e-11
-1.8257587e-08
2.254238e-11
-1.1910724e-08
1.3183442e-11
-7.6642203e-09
7.3439033e-12
-4.8341032e-09
3.797623e-12
-2.9595974e-09
1.7382586e-12
-1.7292243e-09
6.3284288e-13
-9.3196378e-10
1.3012747e-13
-4.2471661e-10
-1.1047343e-10
-1.424891e-08
-4.2935365e-05
-2.4051981e-08
-3.5487984e-05
-2.4437405e-08
-2.8195256e-05
-1.3626276e-08
-2.0663182e-05
-2.3858757e-09
-1.3933105e-05
4.1074856e-09
-9.1730687e-06
6.4638798e-09
-6.0848795e-06
6.6021318e-09
-4.1213147e-06
5.7680519e-09
-2.8520703e-06
4.6190171e-09
-2.0196415e-06
3.474096e-09
-1.4337439e-06
2.5025948e-09
-9.8880098e-07
1.7708501e-09
-6.6921e-07
1.2275433e-09
-4.5495293e-07
8.2893181e-10
-3.0866945e-07
5.5077424e-10
-2.0823123e-07
3.6172738e-10
-1.4006245e-07
2.3500418e-10
-9.3926527e-08
1.5118616e-10
-6.2758387e-08
9.6331436e-11
-4.1777232e-08
6.0662802e-11
-2.7688399e-08
3.7566866e-11
-1.82345e-08
2.2729396e-11
-1.1895886e-08
1.3294655e-11
-7.6547908e-09
7.4066905e-12
-4.8282159e-09
3.8287664e-12
-2.9560223e-09
1.7525604e-12
-1.7271486e-09
6.3801824e-13
-9.3085023e-10
1.3135636e-13
-4.2421065e-10
-1.1034207e-10
-1.4251492e-08
-4.2921114e-05
-2.4060634e-08
-3.5478175e-05
-2.4484103e-08
-2.8194832e-05
-1.3704209e-08
-2.0673962e-05
-2.4332109e-09
-1.3944376e-05
4.0987671e-09
-9.1796006e-06
6.4710278e-09
-6.0872518e-06
6.614423e-09
-4.1214581e-06
5.7804204e-09
-2.8512363e-06
4.6300188e-09
-2.0184911e-06
3.4831551e-09
-1.432597e-06
2.5092833e-09
-9.8782712e-07
1.7755935e-09
-6.684763e-07
1.2309813e-09
-4.5440833e-07
8.3149381e-10
-3.0826995e-07
5.526743e-10
-2.0795243e-07
3.6311484e-10
-1.3987289e-07
2.3600486e-10
-9.3799429e-08
1.5189228e-10
-6.267427e-08
9.6820467e-11
-4.172217e-08
6.0991422e-11
-2.7652569e-08
3.7785349e-11
-1.82113e-08
2.2868181e-11
-1.188097e-08
1.3381505e-11
-7.6453087e-09
7.4573043e-12
-4.8222942e-09
3.8577086e-12
-2.9524255e-09
1.7663499e-12
-1.7250599e-09
6.4324044e-13
-9.2972953e-10
1.3223991e-13
-4.2370137e-10
-1.1020983e-10
-1.4255973e-08
-4.2906858e-05
-2.4073746e-08
-3.5468357e-05
-2.4537598e-08
-2.8194368e-05
-1.3790076e-08
-2.0684709e-05
-2.4879716e-09
-1.3955678e-05
4.0817146e-09
-9.1861703e-06
6.4711089e-09
-6.0896412e-06
6.6210362e-09
-4.121608e-06
5.7881358e-09
-2.8504034e-06
4.6371626e-09
-2.0173402e-06
3.4890059e-09
-1.4314488e-06
2.5134918e-09
-9.8685162e-07
1.7784736e-09
-6.6774126e-07
1.233029e-09
-4.538629e-07
8.3302629e-10
-3.0786994e-07
5.5383437e-10
-2.0767325e-07
3.6397908e-10
-1.3968302e-07
2.3663316e-10
-9.3672093e-08
1.5234086e-10
-6.2589972e-08
9.7131184e-11
-4.1666969e-08
6.120023e-11
-2.7616636e-08
3.7920193e-11
-1.8188026e-08
2.2952199e-11
-1.1866002e-08
1.3430203e-11
-7.6357911e-09
7.4842214e-12
-4.8163492e-09
3.870013e-12
-2.9488139e-09
1.7716958e-12
-1.7229624e-09
6.4508205e-13
-9.28604e-10
1.3281124e-13
-4.2318987e-10
-1.1007702e-10
-1.4262488e-08
-4.2892595e-05
-2.4090731e-08
-3.5458529e-05
-2.4597094e-08
-2.8193862e-05
-1.388207e-08
-2.0695424e-05
-2.5486451e-09
-1.3967012e-05
4.0584265e-09
-9.1927774e-06
6.4660646e-09
-6.0920488e-06
6.6233842e-09
-4.1217653e-06
5.792432e-09
-2.8495724e-06
4.6414791e-09
-2.0161892e-06
3.4925252e-09
-1.4302999e-06
2.5159065e-09
-9.8587501e-07
1.7800403e-09
-6.6700539e-07
1.2341193e-09
-4.5331698e-07
8.33869e-10
-3.0746968e-07
5.5450837e-10
-2.073939e-07
3.6450873e-10
-1.3949301e-07
2.3703728e-10
-9.3544632e-08
1.526409e-10
-6.2505571e-08
9.7346571e-11
-4.1611683e-08
6.134975e-11
-2.7580638e-08
3.8020923e-11
-1.8164704e-08
2.3017124e-11
-1.1850998e-08
1.3470856e-11
-7.6262487e-09
7.5080903e-12
-4.8103876e-09
3.8839083e-12
-2.9451914e-09
1.7782039e-12
-1.7208583e-09
6.4752396e-13
-9.2747482e-10
1.3326694e-13
-4.2267667e-10
-1.0994375e-10
-1.427093e-08
-4.2878324e-05
-2.4111361e-08
-3.5448689e-05
-2.4661196e-08
-2.8193312e-05
-1.3979228e-08
-2.0706106e-05
-2.6137924e-09
-1.3978377e-05
4.0305048e-09
-9.1994217e-06
6.4572542e-09
-6.0944756e-06
6.6225877e-09
-4.1219307e-06
5.794221e-09
-2.848744e-06
4.6436799e-09
-2.0150387e-06
3.4942903e-09
-1.4291505e-06
2.5169511e-09
-9.8489767e-07
1.7805813e-09
-6.66269e-07
1.2344391e-09
-4.5277085e-07
8.341416e-10
-3.0706937e-07
5.5476431e-10
-2.0711453e-07
3.647326e-10
-1.3930297e-07
2.3722341e-10
-9.3417132e-08
1.5278671e-10
-6.2421129e-08
9.7455989e-11
-4.155636e-08
6.1427432e-11
-2.7544607e-08
3.8072568e-11
-1.8141355e-08
2.3049653e-11
-1.1835975e-08
1.3489704e-11
-7.6166921e-09
7.518255e-12
-4.8044163e-09
3.8876282e-12
-2.9415626e-09
1.7797461e-12
-1.7187504e-09
6.4798787e-13
-9.2634345e-10
1.3352435e-13
-4.2216248e-10
-1.0981023e-10
-1.428112e-08
-4.2864043e-05
-2.413549e-08
-3.5438834e-05
-2.4728846e-08
-2.8192719e-05
-1.4079973e-08
-2.0716755e-05
-2.6826478e-09
-1.3989775e-05
3.9988769e-09
-9.2061032e-06
6.4454581e-09
-6.0969221e-06
6.6195963e-09
-4.1221048e-06
5.7941517e-09
-2.8479186e-06
4.6443224e-09
-2.0138889e-06
3.494785e-09
-1.4280009e-06
2.5170114e-09
-9.8391991e-07
1.7803987e-09
-6.6553238e-07
1.2342343e-09
-4.5222469e-07
8.3404548e-10
-3.0666917e-07
5.5476136e-10
-2.0683525e-07
3.6477905e-10
-1.3911298e-07
2.3729455e-10
-9.3289657e-08
1.5285942e-10
-6.2336692e-08
9.7522098e-11
-4.1501032e-08
6.1480884e-11
-2.7508566e-08
3.8114368e-11
-1.8117994e-08
2.3080182e-11
-1.1820942e-08
1.351198e-11
-7.6071284e-09
7.5332587e-12
-4.7984401e-09
3.8983971e-12
-2.9379304e-09
1.785438e-12
-1.7166403e-09
6.5026363e-13
-9.2521083e-10
1.3368654e-13
-4.2164772e-10
-1.0967654e-10
-1.4292882e-08
-4.284975e-05
-2.416271e-08
-3.5428965e-05
-2.4799208e-08
-2.8192082e-05
-1.4183881e-08
-2.072737e-05
-2.7542294e-09
-1.4001204e-05
3.9644951e-09
-9.212822e-06
6.4314998e-09
-6.0993891e-06
6.6148369e-09
-4.1222881e-06
5.7925923e-09
-2.8470963e-06
4.6437279e-09
-2.01274e-06
3.4942751e-09
-1.4268515e-06
2.5162719e-09
-9.8294191e-07
1.7795948e-09
-6.647957e-07
1.2335563e-09
-4.5167866e-07
8.3359542e-10
-3.062692e-07
5.5449258e-10
-2.0655616e-07
3.6462829e-10
-1.3892311e-07
2.3721917e-10
-9.3162256e-08
1.5282497e-10
-6.2252293e-08
9.7508533e-11
-4.1445722e-08
6.1475487e-11
-2.7472532e-08
3.8110912e-11
-1.8094635e-08
2.3076881e-11
-1.1805908e-08
1.3507915e-11
-7.597563e-09
7.5293835e-12
-4.7924624e-09
3.8940013e-12
-2.9342972e-09
1.7827666e-12
-1.7145294e-09
6.4908962e-13
-9.2407778e-10
1.3372454e-13
-4.211328e-10
-1.0954282e-10
-1.4305997e-08
-4.2835444e-05
-2.4192356e-08
-3.5419078e-05
-2.4871575e-08
-2.8191403e-05
-1.4290392e-08
-2.0737952e-05
-2.8283009e-09
-1.4012666e-05
3.9277355e-09
-9.219578e-06
6.4157692e-09
-6.1018772e-06
6.6086308e-09
-4.122481e-06
5.7899101e-09
-2.8462776e-06
4.6422452e-09
-2.0115923e-06
3.4930537e-09
-1.4257023e-06
2.5149957e-09
-9.8196386e-07
1.7783845e-09
-6.6405908e-07
1.2325898e-09
-4.5113287e-07
8.329413e-10
-3.0586954e-07
5.5408982e-10
-2.0627731e-07
3.643953e-10
-1.3873341e-07
2.3709735e-10
-9.3034966e-08
1.5276717e-10
-6.216796e-08
9.7485127e-11
-4.1390446e-08
6.1468824e-11
-2.7436514e-08
3.8111802e-11
-1.8071283e-08
2.3080591e-11
-1.1790877e-08
1.3512448e-11
-7.5879982e-09
7.5332924e-12
-4.7864843e-09
3.8981386e-12
-2.9306635e-09
1.7849302e-12
-1.712418e-09
6.499756e-13
-9.2294441e-10
1.3377476e-13
-4.2061772e-10
-1.0940904e-10
-1.4320213e-08
-4.2821124e-05
-2.4223599e-08
-3.5409175e-05
-2.4946157e-08
-2.819068e-05
-1.4399043e-08
-2.0748499e-05
-2.9044352e-09
-1.4024161e-05
3.8890558e-09
-9.2263715e-06
6.3984922e-09
-6.1043866e-06
6.6013495e-09
-4.1226839e-06
5.7863582e-09
-2.8454626e-06
4.6401635e-09
-2.0104461e-06
3.4913201e-09
-1.4245534e-06
2.513325e-09
-9.8098587e-07
1.7768787e-09
-6.6332262e-07
1.2313941e-09
-4.5058739e-07
8.3210046e-10
-3.0547024e-07
5.5354307e-10
-2.0599876e-07
3.6405141e-10
-1.3854391e-07
2.3688871e-10
-9.2907808e-08
1.5264344e-10
-6.2083709e-08
9.7411888e-11
-4.1335219e-08
6.1424002e-11
-2.7400524e-08
3.8083941e-11
-1.8047946e-08
2.3062184e-11
-1.1775855e-08
1.350003e-11
-7.5784379e-09
7.5246119e-12
-4.7805085e-09
3.8911194e-12
-2.9270311e-09
1.781199e-12
-1.7103072e-09
6.4845893e-13
-9.2181134e-10
1.3374357e-13
-4.2010277e-10
-1.092753e-10
-1.4335307e-08
-4.2806789e-05
-2.4255886e-08
-3.5399254e-05
-2.5022575e-08
-2.8189914e-05
-1.4509812e-08
-2.0759011e-05
-2.9822784e-09
-1.4035689e-05
3.8489127e-09
-9.2332027e-06
6.3801684e-09
-6.1069178e-06
6.5931661e-09
-4.1228969e-06
5.7821588e-09
-2.8446516e-06
4.6375634e-09
-2.0093016e-06
3.4891753e-09
-1.423405e-06
2.5113615e-09
-9.8000806e-07
1.7751826e-09
-6.6258644e-07
1.2300727e-09
-4.5004229e-07
8.3118951e-10
-3.0507135e-07
5.529609e-10
-2.0572054e-07
3.6369689e-10
-1.3835465e-07
2.3668162e-10
-9.2780801e-08
1.5253073e-10
-6.1999557e-08
9.7353189e-11
-4.1280049e-08
6.1395799e-11
-2.7364567e-08
3.8073357e-11
-1.8024629e-08
2.306101e-11
-1.1760844e-08
1.3503668e-11
-7.5688845e-09
7.5295009e-12
-4.7745365e-09
3.8972477e-12
-2.9234011e-09
1.7849402e-12
-1.7081977e-09
6.5009559e-13
-9.2067889e-10
1.3369194e-13
-4.1958807e-10
-1.0914161e-10
-1.4351071e-08
-4.2792438e-05
-2.4289368e-08
-3.5389316e-05
-2.5100451e-08
-2.8189103e-05
-1.4621748e-08
-2.076949e-05
-3.0616584e-09
-1.4047249e-05
3.8075101e-09
-9.2400718e-06
6.360997e-09
-6.1094713e-06
6.5843283e-09
-4.1231202e-06
5.7774745e-09
-2.8438447e-06
4.6344429e-09
-2.0081585e-06
3.4865986e-09
-1.4222572e-06
2.5090561e-09
-9.7903052e-07
1.7732211e-09
-6.6185059e-07
1.2285424e-09
-4.4949762e-07
8.3011445e-10
-3.0467292e-07
5.5224836e-10
-2.0544268e-07
3.6323488e-10
-1.3816563e-07
2.3638696e-10
-9.2653958e-08
1.5234686e-10
-6.1915513e-08
9.7237876e-11
-4.1224944e-08
6.1321579e-11
-2.7328649e-08
3.8025043e-11
-1.8001336e-08
2.3028192e-11
-1.1745847e-08
1.3481421e-11
-7.5593397e-09
7.5143278e-12
-4.7685695e-09
3.8860483e-12
-2.9197741e-09
1.7789219e-12
-1.7060899e-09
6.4768347e-13
-9.1954737e-10
1.3358282e-13
-4.1907377e-10
-1.0900802e-10
-1.436744e-08
-4.277807e-05
-2.4324191e-08
-3.5379359e-05
-2.5179112e-08
-2.8188248e-05
-1.4734944e-08
-2.0779934e-05
-3.1420734e-09
-1.4058841e-05
3.7651116e-09
-9.246979e-06
6.3410582e-09
-6.1120473e-06
6.5751144e-09
-4.1233543e-06
5.7723973e-09
-2.843042e-06
4.6309726e-09
-2.0070171e-06
3.4837462e-09
-1.4211099e-06
2.5065351e-09
-9.7805331e-07
1.7711094e-09
-6.6111516e-07
1.2269137e-09
-4.4895342e-07
8.2898754e-10
-3.0427498e-07
5.5151049e-10
-2.0516521e-07
3.6276776e-10
-1.3797688e-07
2.3610212e-10
-9.2527297e-08
1.5217946e-10
-6.1831587e-08
9.7142431e-11
-4.1169911e-08
6.1268905e-11
-2.7292774e-08
3.7997266e-11
-1.7978067e-08
2.3014803e-11
-1.1730864e-08
1.3476339e-11
-7.5498034e-09
7.513487e-12
-4.7626072e-09
3.8882658e-12
-2.9161498e-09
1.7804209e-12
-1.7039835e-09
6.4841523e-13
-9.1841659e-10
1.335193e-13
-4.1855975e-10
-1.088745e-10
-1.4384411e-08
-4.2763686e-05
-2.4360237e-08
-3.5369383e-05
-2.5258031e-08
-2.818735e-05
-1.4849072e-08
-2.0790343e-05
-3.2236925e-09
-1.4070467e-05
3.7218145e-09
-9.2539245e-06
6.3206191e-09
-6.1146461e-06
6.5654529e-09
-4.1235991e-06
5.7669749e-09
-2.8422435e-06
4.6272202e-09
-2.0058774e-06
3.4806742e-09
-1.4199634e-06
2.5038301e-09
-9.7707647e-07
1.7688288e-09
-6.6038015e-07
1.2251413e-09
-4.4840974e-07
8.2773487e-10
-3.0387757e-07
5.5066624e-10
-2.0488814e-07
3.6221138e-10
-1.3778842e-07
2.3574505e-10
-9.2400833e-08
1.519523e-10
-6.174779e-08
9.7000436e-11
-4.1114961e-08
6.1179115e-11
-2.725695e-08
3.7940672e-11
-1.795483e-08
2.2978128e-11
-1.17159e-08
1.3452833e-11
-7.5402786e-09
7.4982654e-12
-4.7566518e-09
3.8775643e-12
-2.9125294e-09
1.7749365e-12
-1.7018794e-09
6.4626555e-13
-9.1728704e-10
1.3338373e-13
-4.1804624e-10
-1.0874112e-10
-1.4401884e-08
-4.2749284e-05
-2.4397385e-08
-3.5359388e-05
-2.5337427e-08
-2.818641e-05
-1.496399e-08
-2.0800717e-05
-3.3061735e-09
-1.4082125e-05
3.6778602e-09
-9.2609086e-06
6.2997121e-09
-6.1172679e-06
6.5554413e-09
-4.1238548e-06
5.7613414e-09
-2.8414494e-06
4.6232973e-09
-2.0047393e-06
3.4774773e-09
-1.4188176e-06
2.5010348e-09
-9.7610003e-07
1.7664952e-09
-6.5964561e-07
1.2233488e-09
-4.478666e-07
8.2647945e-10
-3.034807e-07
5.498384e-10
-2.0461151e-07
3.6168351e-10
-1.3760026e-07
2.3542075e-10
-9.2274578e-08
1.5175915e-10
-6.1664128e-08
9.6889649e-11
-4.1060099e-08
6.111905e-11
-2.722118e-08
3.791006e-11
-1.7931626e-08
2.296603e-11
-1.1700957e-08
1.3450078e-11
-7.5307666e-09
7.5004585e-12
-4.7507044e-09
3.8827108e-12
-2.9089138e-09
1.7785208e-12
-1.6997782e-09
6.4791342e-13
-9.1615898e-10
1.3322652e-13
-4.1753336e-10
-1.0860789e-10
-1.4419725e-08
-4.2734864e-05
-2.4435008e-08
-3.5349373e-05
-2.541726e-08
-2.8185428e-05
-1.507994e-08
-2.0811054e-05
-3.3896894e-09
-1.4093815e-05
3.6331553e-09
-9.2679314e-06
6.2782836e-09
-6.119913e-06
6.5451625e-09
-4.1241217e-06
5.7555232e-09
-2.8406598e-06
4.6191985e-09
-2.003603e-06
3.4741117e-09
-1.4176725e-06
2.4980936e-09
-9.7512402e-07
1.7640406e-09
-6.5891155e-07
1.221449e-09
-4.4732401e-07
8.2512623e-10
-3.0308437e-07
5.4892223e-10
-2.0433531e-07
3.6107685e-10
-1.3741241e-07
2.3502792e-10
-9.2148533e-08
1.5150497e-10
-6.1580602e-08
9.6726857e-11
-4.1005324e-08
6.1012368e-11
-2.7185464e-08
3.7840296e-11
-1.7908457e-08
2.2918925e-11
-1.1686036e-08
1.3418571e-11
-7.5212676e-09
7.479475e-12
-4.7447652e-09
3.8677234e-12
-2.9053031e-09
1.7705623e-12
-1.6976799e-09
6.4473488e-13
-9.1503246e-10
1.3303629e-13
-4.1702117e-10
-1.0847486e-10
-1.4437838e-08
-4.2720426e-05
-2.4472639e-08
-3.5339338e-05
-2.5498109e-08
-2.8184402e-05
-1.5196525e-08
-2.0821356e-05
-3.4740526e-09
-1.4105537e-05
3.5878047e-09
-9.2749933e-06
6.2565321e-09
-6.1225818e-06
6.5345539e-09
-4.1243997e-06
5.7495048e-09
-2.8398747e-06
4.6149403e-09
-2.0024684e-06
3.4706208e-09
-1.4165282e-06
2.4950751e-09
-9.7414847e-07
1.7615521e-09
-6.5817803e-07
1.2195379e-09
-4.46782e-07
8.2378687e-10
-3.0268861e-07
5.4803262e-10
-2.0405956e-07
3.605078e-10
-1.3722488e-07
2.346772e-10
-9.2022706e-08
1.5129438e-10
-6.1497217e-08
9.6603745e-11
-4.0950637e-08
6.0942465e-11
-2.7149802e-08
3.7802197e-11
-1.7885319e-08
2.2900178e-11
-1.1671134e-08
1.3410651e-11
-7.5117801e-09
7.4778099e-12
-4.738833e-09
3.870063e-12
-2.9016961e-09
1.7722921e-12
-1.6955838e-09
6.4555707e-13
-9.1390706e-10
1.3291177e-13
-4.1650947e-10
-1.0834195e-10
-1.4456204e-08
-4.270597e-05
-2.4510426e-08
-3.5329284e-05
-2.5579399e-08
-2.8183333e-05
-1.531394e-08
-2.0831621e-05
-3.5591021e-09
-1.4117292e-05
3.5419919e-09
-9.2820944e-06
6.2344828e-09
-6.1252743e-06
6.5238326e-09
-4.1246891e-06
5.7433246e-09
-2.8390942e-06
4.6105413e-09
-2.0013356e-06
3.4670056e-09
-1.4153846e-06
2.4919594e-09
-9.7317343e-07
1.7589833e-09
-6.5744505e-07
1.2175548e-09
-4.4624057e-07
8.2238092e-10
-3.0229343e-07
5.4707875e-10
-2.0378425e-07
3.5987551e-10
-1.3703767e-07
2.3426707e-10
-9.1897098e-08
1.510318e-10
-6.1413977e-08
9.6437317e-11
-4.0896042e-08
6.0836031e-11
-2.7114198e-08
3.7734641e-11
-1.7862217e-08
2.2855741e-11
-1.1656253e-08
1.3381909e-11
-7.5023057e-09
7.4592116e-12
-4.7329091e-09
3.8569611e-12
-2.8980938e-09
1.7654652e-12
-1.6934903e-09
6.4282109e-13
-9.1278306e-10
1.3274013e-13
-4.1599843e-10
-1.0820921e-10
-1.4474838e-08
-4.2691495e-05
-2.4548624e-08
-3.531921e-05
-2.5660469e-08
-2.8182221e-05
-1.5431757e-08
-2.084185e-05
-3.6451081e-09
-1.4129079e-05
3.4956169e-09
-9.2892351e-06
6.2121689e-09
-6.1279908e-06
6.5130386e-09
-4.12499e-06
5.7370501e-09
-2.8383182e-06
4.6060874e-09
-2.0002047e-06
3.4633752e-09
-1.4142419e-06
2.4888538e-09
-9.7219891e-07
1.7564333e-09
-6.5671262e-07
1.2156081e-09
-4.4569975e-07
8.2102564e-10
-3.0189885e-07
5.4617923e-10
-2.0350941e-07
3.5929968e-10
-1.3685079e-07
2.3390854e-10
-9.1771714e-08
1.5081951e-10
-6.1330889e-08
9.6313814e-11
-4.0841543e-08
6.0769237e-11
-2.7078655e-08
3.7700281e-11
-1.7839154e-08
2.2842036e-11
-1.1641397e-08
1.3378729e-11
-7.4928462e-09
7.4618412e-12
-4.7269943e-09
3.8628873e-12
-2.8944968e-09
1.7695233e-12
-1.6914e-09
6.4462307e-13
-9.1166069e-10
1.3254571e-13
-4.1548814e-10
-1.0807666e-10
-1.4493742e-08
-4.2677002e-05
-2.4587447e-08
-3.5309116e-05
-2.5741572e-08
-2.8181067e-05
-1.5549836e-08
-2.0852041e-05
-3.7315937e-09
-1.4140897e-05
3.4489545e-09
-9.2964156e-06
6.1897201e-09
-6.1307316e-06
6.5020578e-09
-4.1253023e-06
5.7306888e-09
-2.8375469e-06
4.6015639e-09
-1.9990756e-06
3.4596895e-09
-1.4131e-06
2.4856922e-09
-9.7122491e-07
1.7538092e-09
-6.5598074e-07
1.2135829e-09
-4.4515953e-07
8.1958088e-10
-3.0150485e-07
5.4519491e-10
-2.0323503e-07
3.58641e-10
-1.3666424e-07
2.3347617e-10
-9.1646551e-08
1.5053923e-10
-6.124795e-08
9.6131695e-11
-4.0787137e-08
6.0649083e-11
-2.7043171e-08
3.7621676e-11
-1.7816127e-08
2.2789008e-11
-1.1626564e-08
1.3343584e-11
-7.4834014e-09
7.4382604e-12
-4.7210886e-09
3.8461916e-12
-2.8909053e-09
1.7605779e-12
-1.6893127e-09
6.4100045e-13
-9.1053999e-10
1.3232855e-13
-4.1497868e-10
-1.0794433e-10
-1.4512891e-08
-4.2662489e-05
-2.4626905e-08
-3.5299002e-05
-2.5822197e-08
-2.8179872e-05
-1.5668409e-08
-2.0862195e-05
-3.8188228e-09
-1.4152747e-05
3.4018157e-09
-9.3036363e-06
6.1669875e-09
-6.1334967e-06
6.4910144e-09
-4.1256263e-06
5.7243276e-09
-2.8367802e-06
4.5970413e-09
-1.9979483e-06
3.456017e-09
-1.411959e-06
2.4825375e-09
-9.7025144e-07
1.7512101e-09
-6.5524941e-07
1.2115937e-09
-4.4461991e-07
8.181806e-10
-3.0111143e-07
5.4426506e-10
-2.0296112e-07
3.5804193e-10
-1.3647801e-07
2.331036e-10
-9.1521616e-08
1.5031558e-10
-6.116516e-08
9.6000513e-11
-4.0732825e-08
6.0574936e-11
-2.7007745e-08
3.7581384e-11
-1.7793136e-08
2.2770178e-11
-1.1611752e-08
1.3336359e-11
-7.4739693e-09
7.4373623e-12
-4.7151904e-09
3.8495254e-12
-2.8873182e-09
1.7629245e-12
-1.6872278e-09
6.4205989e-13
-9.0942049e-10
1.3219082e-13
-4.1446978e-10
-1.0781214e-10
-1.4532217e-08
-4.2647956e-05
-2.4666689e-08
-3.5288868e-05
-2.5903026e-08
-2.8178636e-05
-1.5787181e-08
-2.0872311e-05
-3.906584e-09
-1.4164627e-05
3.354207e-09
-9.3108971e-06
6.1440396e-09
-6.1362866e-06
6.4798089e-09
-4.1259621e-06
5.7178887e-09
-2.8360183e-06
4.5925039e-09
-1.9968229e-06
3.4523234e-09
-1.4108188e-06
2.479339e-09
-9.6927845e-07
1.74857e-09
-6.5451863e-07
1.2095557e-09
-4.440809e-07
8.1672651e-10
-3.007186e-07
5.4327526e-10
-2.0268767e-07
3.5738167e-10
-1.3629211e-07
2.3267372e-10
-9.1396908e-08
1.5003772e-10
-6.1082521e-08
9.5823348e-11
-4.067861e-08
6.0460533e-11
-2.697238e-08
3.7508377e-11
-1.7770183e-08
2.272231e-11
-1.1596965e-08
1.3305712e-11
-7.4645518e-09
7.4173097e-12
-4.7093008e-09
3.83577e-12
-2.8837364e-09
1.7557005e-12
-1.6851458e-09
6.3916792e-13
-9.0830252e-10
1.3200788e-13
-4.139616e-10
-1.0768013e-10
-1.4551666e-08
-4.2633405e-05
-2.4706264e-08
-3.5278713e-05
-2.5984321e-08
-2.8177358e-05
-1.590661e-08
-2.0882389e-05
-3.9950685e-09
-1.4176539e-05
3.3063072e-09
-9.3181984e-06
6.1209844e-09
-6.1391013e-06
6.4684944e-09
-4.1263096e-06
5.7113439e-09
-2.8352611e-06
4.5879402e-09
-1.9956995e-06
3.448622e-09
-1.4096795e-06
2.4761645e-09
-9.68306e-07
1.7459808e-09
-6.5378845e-07
1.2075811e-09
-4.435425e-07
8.1535086e-10
-3.0032637e-07
5.4236248e-10
-2.0241469e-07
3.5679949e-10
-1.3610655e-07
2.3231431e-10
-9.1272432e-08
1.4982415e-10
-6.1000035e-08
9.5699933e-11
-4.0624495e-08
6.0394862e-11
-2.6937078e-08
3.747549e-11
-1.7747271e-08
2.2710896e-11
-1.1582203e-08
1.3304921e-11
-7.4551509e-09
7.4221574e-12
-4.7034212e-09
3.8438895e-12
-2.8801608e-09
1.7612018e-12
-1.6830672e-09
6.4160135e-13
-9.0718643e-10
1.3179183e-13
-4.1345428e-10
-1.0754834e-10
-1.4571261e-08
-4.2618833e-05
-2.4745629e-08
-3.5268539e-05
-2.606571e-08
-2.8176037e-05
-1.6026448e-08
-2.0892428e-05
-4.0842731e-09
-1.4188481e-05
3.2579642e-09
-9.3255407e-06
6.0976931e-09
-6.141941e-06
6.4572158e-09
-4.1266691e-06
5.7047427e-09
-2.8345086e-06
4.5832956e-09
-1.994578e-06
3.444835e-09
-1.408541e-06
2.4729177e-09
-9.6733409e-07
1.7433114e-09
-6.5305884e-07
1.2055197e-09
-4.4300472e-07
8.1388293e-10
-2.9993473e-07
5.4135639e-10
-2.0214217e-07
3.561221e-10
-1.3592132e-07
2.3186684e-10
-9.1148181e-08
1.4952709e-10
-6.0917695e-08
9.550426e-11
-4.0570475e-08
6.0262773e-11
-2.6901838e-08
3.7387655e-11
-1.7724398e-08
2.2649591e-11
-1.1567466e-08
1.3263616e-11
-7.4457661e-09
7.3936416e-12
-4.6975514e-09
3.8234202e-12
-2.8765916e-09
1.7501085e-12
-1.6809922e-09
6.3714268e-13
-9.0607227e-10
1.3155714e-13
-4.1294784e-10
-1.0741678e-10
-1.4591063e-08
-4.2604242e-05
-2.4785252e-08
-3.5258345e-05