/*--------------------------------*- C++ -*----------------------------------*\
| =========                 |                                                 |
| \\      /  F ield         | OpenFOAM: The Open Source CFD Toolbox           |
|  \\    /   O peration     | Version:  v2012                                 |
|   \\  /    A nd           | Website:  www.openfoam.com                      |
|    \\/     M anipulation  |                                                 |
\*---------------------------------------------------------------------------*/
FoamFile
{
    version     2.0;
    format      ascii;
    class       volScalarField;
    location    "600";
    object      rho;
}
// * * * * * * * * * * * * * * * * * * * * * * * * * * * * * * * * * * * * * //

dimensions      [1 -3 0 0 0 0 0];


internalField   nonuniform List<scalar> 
24000
(
22.395869
22.08912
20.73584
17.74006
13.784562
10.361556
7.8176913
6.036643
4.7992774
3.9618782
3.3263911
2.7660042
2.3298577
2.0337942
1.8250248
1.6737708
1.5638914
1.4826613
1.4215202
1.3748808
1.3388672
1.310709
1.2884423
1.2706664
1.2563667
1.2447921
1.2353776
1.2276904
1.2213943
1.2162252
22.397637
22.092151
20.744495
17.759161
13.805782
10.377138
7.8277015
6.0431712
4.8031991
3.9639567
3.3273696
2.7664746
2.3300346
2.0337198
1.8248141
1.6735273
1.5636548
1.4824478
1.4213354
1.3747238
1.338734
1.3105951
1.2883435
1.2705794
1.2562883
1.2447203
1.2353105
1.2276264
1.2213323
1.2161643
22.399447
22.095283
20.753644
17.778399
13.826241
10.391723
7.8372695
6.0487956
4.8061316
3.9651091
3.3275607
2.7663518
2.3297821
2.0333699
1.8244338
1.6731788
1.5633505
1.4821855
1.4211107
1.3745313
1.3385675
1.310449
1.2882132
1.270461
1.256179
1.2446178
1.2352129
1.2275323
1.2212404
1.2160738
22.401262
22.098487
20.762876
17.797493
13.846385
10.406228
7.8465691
6.0540665
4.8087429
3.9660558
3.3276047
2.7660672
2.3294214
2.0329654
1.8240346
1.672834
1.5630605
1.4819399
1.4209
1.3743475
1.338404
1.3103008
1.2880766
1.2703334
1.2560581
1.2445021
1.2351011
1.2274234
1.2211336
1.2159684
22.403077
22.101719
20.772125
17.816496
13.866375
10.420749
7.8556596
6.0590807
4.8111244
3.9668238
3.3274912
2.7656172
2.3289206
2.032456
1.8235551
1.6724249
1.5627172
1.4816492
1.4206508
1.3741305
1.3382115
1.3101268
1.2879166
1.270184
1.2559169
1.2443671
1.2349707
1.2272964
1.221009
1.2158455
22.404891
22.104962
20.78135
17.835421
13.886292
10.435302
7.8646296
6.0639488
4.8133718
3.9674872
3.3272839
2.7650627
2.3283294
2.0318778
1.8230222
1.671973
1.5623387
1.4813286
1.420375
1.3738892
1.3379962
1.309931
1.2877356
1.2700143
1.2557557
1.2442123
1.2348208
1.2271501
1.2208654
1.2157038
22.406702
22.108205
20.790538
17.854284
13.906179
10.449895
7.8735304
6.0687276
4.8155347
3.9680828
3.3270122
2.7644364
2.327676
2.0312523
1.8224531
1.671493
1.561938
1.48099
1.4200842
1.3736348
1.3377692
1.3097245
1.2875444
1.2698347
1.2555849
1.2440482
1.2346618
1.2269949
1.220713
1.2155533
22.408509
22.111443
20.799687
17.873092
13.926058
10.464533
7.8823965
6.0734541
4.8176443
3.9686332
3.3266972
2.7637619
2.3269806
2.0305949
1.8218596
1.6709938
1.5615218
1.4806384
1.4197823
1.3733706
1.3375331
1.3095094
1.287345
1.2696472
1.2554065
1.2438767
1.2344955
1.2268324
1.2205535
1.2153958
22.410312
22.114674
20.808795
17.891854
13.945948
10.479219
7.8912494
6.0781521
4.8197196
3.9691533
3.3263535
2.7630547
2.3262567
2.0299162
1.82125
1.670482
1.5610957
1.4802787
1.4194734
1.3731003
1.3372915
1.3092891
1.2871407
1.2694551
1.2552235
1.2437007
1.2343247
1.2266656
1.2203897
1.215234
22.412111
22.117895
20.817861
17.910576
13.965857
10.493955
7.9001043
6.0828365
4.8217736
3.9696532
3.32599
2.7623248
2.3255134
2.029223
1.8206296
1.6699619
1.560663
1.4799135
1.4191598
1.3728258
1.3370461
1.3090653
1.286933
1.2692596
1.2550374
1.2435215
1.2341509
1.2264958
1.2202228
1.2150692
22.413904
22.121107
20.826886
17.929262
13.985795
10.508743
7.9089709
6.0875163
4.8238156
3.9701398
3.3256127
2.7615789
2.3247565
2.02852
1.820002
1.6694363
1.5602259
1.4795447
1.4188432
1.3725486
1.3367983
1.3088391
1.2867232
1.269062
1.2548491
1.2433404
1.2339751
1.2263241
1.220054
1.2149025
22.415693
22.124309
20.835873
17.947916
14.005765
10.523584
7.9178563
6.0921991
4.8258514
3.9706177
3.3252255
2.7608215
2.3239902
2.0278102
1.8193696
1.6689072
1.559786
1.4791737
1.4185246
1.3722698
1.3365488
1.3086115
1.2865119
1.268863
1.2546595
1.2431579
1.233798
1.226151
1.2198838
1.2147345
22.417477
22.127501
20.844822
17.96654
14.025772
10.538479
7.9267655
6.0968894
4.8278852
3.97109
3.3248313
2.7600558
2.3232173
2.027096
1.8187342
1.6683759
1.5593444
1.4788012
1.4182049
1.3719898
1.3362983
1.3083829
1.2862997
1.2686632
1.254469
1.2429746
1.2336201
1.2259772
1.2197129
1.2145657
22.419255
22.130683
20.853737
17.985137
14.04582
10.553429
7.9357022
6.1015902
4.8299195
3.9715591
3.3244319
2.7592839
2.3224395
2.0263787
1.818097
1.6678432
1.5589017
1.4784281
1.4178845
1.3717093
1.3360472
1.3081537
1.2860869
1.2684628
1.254278
1.2427907
1.2334417
1.2258029
1.2195414
1.2143964
22.421029
22.133857
20.862618
18.003706
14.065909
10.568433
7.9446694
6.1063046
4.8319567
3.9720269
3.3240289
2.7585076
2.3216584
2.0256594
1.8174587
1.66731
1.5584587
1.4780546
1.4175638
1.3714284
1.3357959
1.3079244
1.285874
1.2682622
1.2540867
1.2426066
1.233263
1.2256283
1.2193697
1.2142269
22.422798
22.137021
20.871463
18.022252
14.086043
10.583494
7.953669
6.1110344
4.8339984
3.9724943
3.3236233
2.7577279
2.3208748
2.024939
1.81682
1.6667766
1.5580157
1.4776811
1.4172432
1.3711476
1.3355446
1.307695
1.2856609
1.2680615
1.2538954
1.2424224
1.2330843
1.2254536
1.219198
1.2140573
22.424562
22.140177
20.880273
18.040772
14.10622
10.59861
7.9627028
6.1157805
4.8360458
3.9729623
3.3232158
2.7569457
2.3200898
2.024218
1.8161814
1.6662435
1.557573
1.4773078
1.4169228
1.3708669
1.3352935
1.3074657
1.285448
1.2678609
1.2537042
1.2422382
1.2329056
1.2252789
1.2190263
1.2138878
22.426321
22.143324
20.88905
18.059269
14.126445
10.613784
7.9717721
6.1205447
4.8380999
3.9734314
3.3228071
2.7561617
2.3193037
2.0234968
1.8155431
1.6657109
1.5571307
1.4769349
1.4166027
1.3705866
1.3350426
1.3072366
1.2852352
1.2676604
1.2535131
1.2420541
1.2327269
1.2251043
1.2188547
1.2137185
22.428075
22.146462
20.897794
18.077742
14.146715
10.629014
7.9808781
6.1253277
4.840161
3.9739022
3.3223977
2.7553763
2.3185171
2.0227759
1.8149056
1.6651791
1.5566891
1.4765627
1.416283
1.3703067
1.3347921
1.3070079
1.2850227
1.2674602
1.2533223
1.2418703
1.2325485
1.2249299
1.2186835
1.2135494
22.429823
22.149591
20.906508
18.09619
14.167032
10.644302
7.9900215
6.1301298
4.8422297
3.9743751
3.321988
2.7545899
2.3177301
2.0220554
1.814269
1.664648
1.5562483
1.4761911
1.415964
1.3700273
1.334542
1.3067795
1.2848106
1.2672603
1.2531317
1.2416868
1.2323703
1.2247557
1.2185125
1.2133805
22.431567
22.152712
20.91519
18.114616
14.187398
10.659647
7.9992034
6.1349524
4.8443065
3.9748512
3.3215781
2.7538027
2.3169431
2.0213355
1.8136333
1.6641181
1.5558084
1.4758204
1.4156457
1.3697485
1.3342925
1.3065516
1.2845989
1.2670608
1.2529416
1.2415037
1.2321924
1.2245818
1.2183418
1.213212
22.433306
22.155825
20.923839
18.133018
14.207809
10.675051
8.0084243
6.1397955
4.8463919
3.9753301
3.3211683
2.7530149
2.3161561
2.0206164
1.8129987
1.6635892
1.5553694
1.4754505
1.4153281
1.3694702
1.3340434
1.3063242
1.2843876
1.2668617
1.2527516
1.2413209
1.2320149
1.2244083
1.2181714
1.2130436
22.43504
22.158929
20.932456
18.151396
14.228269
10.690513
8.0176848
6.1446593
4.8484863
3.9758118
3.3207588
2.752227
2.3153695
2.0198982
1.8123653
1.6630615
1.5549315
1.4750814
1.4150113
1.3691926
1.3337949
1.3060973
1.2841768
1.2666631
1.2525622
1.2411386
1.2318378
1.2242352
1.2180013
1.2128757
22.436769
22.162024
20.941041
18.169751
14.248776
10.706033
8.0269854
6.1495449
4.8505897
3.9762966
3.3203497
2.7514388
2.3145835
2.019181
1.8117332
1.662535
1.5544946
1.4747131
1.4146952
1.3689157
1.333547
1.3058708
1.2839665
1.266465
1.2523732
1.2409567
1.2316611
1.2240626
1.2178316
1.212708
22.438492
22.16511
20.949595
18.188079
14.269331
10.721613
8.0363268
6.154452
4.8527021
3.9767845
3.3199411
2.7506507
2.3137979
2.0184649
1.8111026
1.6620098
1.5540588
1.4743458
1.41438
1.3686395
1.3332997
1.305645
1.2837567
1.2662673
1.2521846
1.2407753
1.2314849
1.2238904
1.2176622
1.2125407
22.44021
22.168188
20.958119
18.206385
14.289934
10.737252
8.045709
6.1593809
4.8548237
3.9772756
3.3195332
2.7498624
2.3130129
2.0177499
1.8104733
1.6614858
1.553624
1.4739795
1.4140655
1.368364
1.333053
1.3054197
1.2835474
1.2660701
1.2519965
1.2405942
1.2313091
1.2237186
1.2174932
1.2123737
22.441923
22.171256
20.966614
18.224665
14.310583
10.752951
8.055133
6.1643325
4.856955
3.97777
3.319126
2.7490742
2.3122285
2.0170361
1.8098454
1.6609632
1.5531905
1.4736142
1.4137519
1.3680893
1.3328071
1.3051951
1.2833387
1.2658734
1.2518089
1.2404136
1.2311339
1.2235474
1.2173246
1.2122073
22.443631
22.174316
20.975076
18.242919
14.331281
10.768711
8.0645988
6.1693063
4.8590961
3.9782678
3.3187196
2.7482862
2.3114449
2.0163235
1.8092189
1.660442
1.5527582
1.47325
1.4134391
1.3678153
1.3325617
1.304971
1.2831305
1.2656772
1.2516218
1.2402334
1.2309591
1.2233765
1.2171564
1.2120412
22.445333
22.177368
20.983506
18.261149
14.352025
10.78453
8.0741069
6.1743028
4.861247
3.9787691
3.3183141
2.7474985
2.3106621
2.0156122
1.808594
1.6599223
1.5523271
1.4728868
1.4131273
1.3675422
1.3323171
1.3047476
1.2829229
1.2654815
1.2514354
1.2400537
1.2307848
1.2232061
1.2169887
1.2118757
22.447031
22.180411
20.991906
18.27935
14.372817
10.80041
8.0836579
6.1793226
4.8634076
3.9792739
3.3179094
2.746711
2.3098802
2.0149022
1.8079707
1.6594038
1.5518972
1.4725246
1.4128163
1.3672697
1.3320732
1.3045248
1.2827158
1.2652863
1.2512494
1.2398743
1.2306108
1.2230361
1.2168215
1.2117107
22.448722
22.183445
21.000275
18.297527
14.393655
10.816352
8.0932517
6.1843652
4.865578
3.9797822
3.3175057
2.745924
2.309099
2.0141935
1.8073489
1.6588868
1.5514685
1.4721634
1.4125063
1.3669981
1.33183
1.3043026
1.2825094
1.2650917
1.2510639
1.2396955
1.2304374
1.2228665
1.2166549
1.2115463
22.450409
22.18647
21.008614
18.315676
14.414539
10.832355
8.1028894
6.1894314
4.8677585
3.9802942
3.317103
2.7451372
2.3083187
2.0134862
1.8067285
1.6583713
1.551041
1.4718033
1.4121972
1.3667272
1.3315874
1.304081
1.2823035
1.2648976
1.2508789
1.2395172
1.2302643
1.2226973
1.2164888
1.2113822
22.452089
22.189487
21.016925
18.333798
14.435471
10.84842
8.1125706
6.1945215
4.8699494
3.9808101
3.3167014
2.7443507
2.3075392
2.0127801
1.8061098
1.6578572
1.5506148
1.4714442
1.411889
1.3664571
1.3313456
1.3038601
1.2820984
1.2647041
1.2506944
1.2393395
1.2300917
1.2225285
1.2163232
1.2112187
22.453765
22.192496
21.025205
18.351893
14.456447
10.864547
8.1222964
6.1996349
4.8721506
3.9813299
3.3163008
2.7435645
2.3067606
2.0120754
1.8054925
1.6573445
1.5501898
1.4710862
1.4115817
1.3661877
1.3311044
1.3036397
1.2818936
1.2645112
1.2505104
1.2391623
1.2299194
1.2223602
1.216158
1.2110555
22.455435
22.195496
21.033454
18.369957
14.47747
10.880736
8.1320664
6.2047727
4.874362
3.9818536
3.3159013
2.7427788
2.3059831
2.0113722
1.804877
1.6568333
1.5497661
1.4707294
1.4112753
1.3659193
1.330864
1.3034201
1.2816896
1.2643189
1.2503269
1.2389857
1.2297478
1.2221924
1.2159933
1.2108929
22.4571
22.198488
21.041672
18.387996
14.498537
10.896989
8.141882
6.2099346
4.8765836
3.9823814
3.3155029
2.7419936
2.3052064
2.0106702
1.804263
1.6563236
1.5493437
1.4703736
1.4109698
1.3656516
1.3306243
1.3032012
1.2814861
1.2641272
1.2501438
1.2388096
1.2295766
1.2220251
1.215829
1.2107306
22.458759
22.201471
21.04986
18.406003
14.51965
10.913304
8.1517423
6.2151208
4.8788157
3.9829134
3.3151058
2.7412088
2.3044306
2.0099697
1.8036506
1.6558153
1.5489225
1.4700189
1.4106654
1.3653849
1.3303854
1.302983
1.2812832
1.2639361
1.2499614
1.2386342
1.2294061
1.2218584
1.2156652
1.2105688
22.460412
22.204446
21.058018
18.423983
14.540809
10.929683
8.1616491
6.2203321
4.8810586
3.9834497
3.3147097
2.7404245
2.3036556
2.0092704
1.8030396
1.6553084
1.5485025
1.4696651
1.4103618
1.3651189
1.3301471
1.3027652
1.2810808
1.2637454
1.2497794
1.2384591
1.229236
1.2216922
1.2155018
1.2104073
22.462061
22.207411
21.066148
18.441933
14.562011
10.946125
8.1716014
6.2255678
4.8833123
3.9839901
3.314315
2.7396405
2.3028816
2.0085726
1.8024303
1.654803
1.5480838
1.4693125
1.4100592
1.3648537
1.3299096
1.3025482
1.2808791
1.2635554
1.2495981
1.2382846
1.2290666
1.2215266
1.2153388
1.2102464
22.463703
22.210369
21.07425
18.459853
14.583259
10.96263
8.1816009
6.2308286
4.8855765
3.9845347
3.3139215
2.738857
2.3021086
2.0078762
1.8018226
1.6542991
1.5476663
1.468961
1.4097575
1.3645893
1.3296728
1.3023318
1.280678
1.2633658
1.2494173
1.2381105
1.2288977
1.2213615
1.2151763
1.2100858
22.46534
22.213317
21.082321
18.477745
14.60455
10.979198
8.1916468
6.236115
4.8878513
3.9850835
3.3135293
2.738074
2.3013367
2.0071812
1.8012166
1.6537967
1.5472502
1.4686106
1.4094567
1.3643258
1.3294367
1.3021161
1.2804776
1.2631769
1.2492372
1.2379369
1.2287294
1.221197
1.2150143
1.2099258
22.466972
22.216257
21.090361
18.495606
14.625887
10.995829
8.2017406
6.2414263
4.890137
3.9856364
3.3131384
2.7372916
2.3005657
2.0064876
1.8006121
1.6532957
1.5468353
1.4682613
1.4091568
1.364063
1.3292013
1.3019011
1.2802777
1.2629883
1.2490576
1.2377638
1.2285614
1.2210328
1.2148526
1.2097662
22.468597
22.219188
21.098371
18.513438
14.647267
11.012523
8.2118817
6.2467635
4.8924338
3.9861936
3.3127488
2.7365099
2.2997957
2.0057954
1.8000092
1.6527962
1.5464218
1.4679132
1.408858
1.3638011
1.3289668
1.3016868
1.2800785
1.2628005
1.2488786
1.2375912
1.2283941
1.2208692
1.2146916
1.2096073
22.470217
22.22211
21.106352
18.531241
14.66869
11.029281
8.2220714
6.2521266
4.8947417
3.986755
3.3123607
2.7357288
2.2990266
2.0051047
1.799408
1.6522983
1.5460095
1.4675662
1.40856
1.36354
1.328733
1.3014731
1.2798801
1.2626133
1.2487002
1.2374191
1.2282272
1.2207061
1.2145312
1.209449
22.471831
22.225023
21.114304
18.549012
14.690158
11.046101
8.2323096
6.2575153
4.8970605
3.9873208
3.3119741
2.7349483
2.2982586
2.0044155
1.7988084
1.6518019
1.5455986
1.4672203
1.4082632
1.3632799
1.3285001
1.3012603
1.2796823
1.2624268
1.2485225
1.2372477
1.2280608
1.2205434
1.2143715
1.2092913
22.473439
22.227927
21.12223
18.566754
14.711668
11.062984
8.2425969
6.2629309
4.8993903
3.9878908
3.3115889
2.7341682
2.2974917
2.0037277
1.7982105
1.6513069
1.5451888
1.4668754
1.4079672
1.3630205
1.3282677
1.3010479
1.279485
1.2622408
1.2483451
1.2370767
1.2278948
1.2203812
1.2142122
1.209134
22.475041
22.230821
21.130126
18.584466
14.733223
11.079931
8.2529339
6.2683724
4.9017314
3.9884653
3.3112052
2.7333887
2.2967258
2.0030413
1.7976142
1.6508134
1.5447803
1.4665316
1.4076723
1.362762
1.3280362
1.3008365
1.2792885
1.2620555
1.2481683
1.2369065
1.2277294
1.2202195
1.2140535
1.2089773
22.476638
22.233706
21.137992
18.602146
14.75482
11.09694
8.2633208
6.2738407
4.9040839
3.9890444
3.310823
2.7326099
2.2959608
2.0023562
1.7970194
1.6503214
1.5443732
1.4661889
1.4073784
1.3625044
1.3278054
1.3006256
1.2790925
1.2618708
1.247992
1.2367368
1.2275645
1.2200582
1.2138953
1.208821
22.478228
22.236582
21.145828
18.619798
14.776459
11.114012
8.2737585
6.279336
4.9064479
3.989628
3.3104422
2.7318317
2.2951967
2.0016726
1.7964262
1.6498309
1.5439674
1.4658474
1.4070854
1.3622476
1.3275754
1.3004155
1.2788972
1.2616868
1.2478163
1.2365678
1.2274001
1.2198975
1.2137376
1.2086653
22.479813
22.239448
21.153635
18.637417
14.798142
11.131147
8.2842467
6.284858
4.9088232
3.9902161
3.310063
2.7310541
2.2944336
2.0009903
1.7958346
1.6493417
1.5435628
1.4655069
1.4067932
1.3619916
1.3273461
1.3002059
1.2787023
1.2615033
1.247641
1.2363993
1.2272361
1.2197373
1.2135803
1.2085099
22.481392
22.242304
21.161413
18.655007
14.819866
11.148344
8.2947869
6.2904076
4.9112099
3.9908089
3.3096855
2.7302773
2.2936715
2.0003095
1.7952446
1.6488542
1.5431596
1.4651677
1.4065021
1.3617365
1.3271177
1.2999972
1.2785082
1.2613205
1.2474664
1.2362314
1.227073
1.2195778
1.2134235
1.208355
22.482965
22.245152
21.169163
18.672567
14.841633
11.165603
8.3053786
6.2959844
4.9136081
3.9914062
3.3093096
2.7295009
2.2929106
1.9996301
1.7946563
1.6483681
1.5427575
1.4648296
1.4062118
1.3614822
1.3268899
1.299789
1.2783147
1.2611382
1.2472925
1.236064
1.2269104
1.2194189
1.2132672
1.2082007
22.484532
22.24799
21.176887
18.690093
14.863441
11.182925
8.3160232
6.3015888
4.9160183
3.9920083
3.3089354
2.7287253
2.2921507
1.9989522
1.7940697
1.6478835
1.5423569
1.4644926
1.4059226
1.3612289
1.3266629
1.2995816
1.278122
1.2609565
1.2471193
1.2358972
1.2267485
1.2192607
1.2131115
1.2080468
22.486093
22.250818
21.184582
18.707591
14.885291
11.200309
8.3267205
6.3072213
4.9184402
3.9926151
3.3085629
2.7279503
2.2913917
1.9982757
1.7934845
1.6474004
1.5419574
1.4641565
1.4056343
1.3609764
1.3264366
1.2993748
1.2779299
1.2607753
1.2469466
1.2357308
1.2265871
1.2191029
1.2129562
1.2078934
22.487649
22.253637
21.192248
18.725056
14.907184
11.217755
8.3374715
6.3128815
4.9208738
3.9932268
3.3081921
2.7271761
2.2906336
1.9976005
1.7929009
1.6469187
1.5415593
1.4638217
1.4053472
1.3607247
1.3262112
1.2991689
1.2777385
1.2605948
1.2467746
1.235565
1.2264264
1.2189458
1.2128014
1.2077405
22.489198
22.256446
21.199884
18.742489
14.929116
11.235264
8.3482764
6.3185702
4.9233192
3.9938434
3.3078231
2.7264027
2.2898766
1.9969268
1.7923189
1.6464385
1.5411625
1.4634879
1.4050609
1.3604739
1.3259866
1.2989636
1.2775478
1.2604148
1.2466031
1.2353997
1.2262661
1.2187891
1.2126471
1.2075881
22.490742
22.259246
21.207491
18.759894
14.951091
11.252833
8.3591358
6.3242871
4.9257766
3.994465
3.3074558
2.72563
2.2891206
1.9962544
1.7917386
1.6459598
1.5407669
1.4631554
1.4047758
1.360224
1.3257628
1.2987592
1.2773577
1.2602355
1.2464324
1.235235
1.2261063
1.2186329
1.2124934
1.2074364
22.492279
22.262036
21.21507
18.777264
14.973106
11.270464
8.3700507
6.3300326
4.9282463
3.9950917
3.3070902
2.7248578
2.2883656
1.9955834
1.7911597
1.6454825
1.5403726
1.4628239
1.4044914
1.3599748
1.3255396
1.2985553
1.2771683
1.2600569
1.2462621
1.2350707
1.225947
1.2184772
1.2123403
1.2072853
22.493811
22.264816
21.222621
18.794604
14.995162
11.288157
8.381021
6.3358072
4.9307281
3.9957234
3.3067265
2.7240863
2.2876116
1.9949138
1.7905825
1.6450067
1.5399795
1.4624935
1.4042081
1.3597266
1.3253174
1.2983522
1.2769796
1.2598791
1.2460925
1.2349072
1.2257883
1.218322
1.2121878
1.2071349
22.495337
22.267586
21.230146
18.811913
15.017259
11.30591
8.3920477
6.3416103
4.9332219
3.9963601
3.3063647
2.7233155
2.2868584
1.9942455
1.7900067
1.6445323
1.5395877
1.4621642
1.4039257
1.3594791
1.3250959
1.2981498
1.2767916
1.2597018
1.2459234
1.2347443
1.2256301
1.2181674
1.212036
1.2069849
22.496857
22.270346
21.237644
18.829189
15.039395
11.323725
8.403131
6.347443
4.9357281
3.9970019
3.3060049
2.7225455
2.2861062
1.9935786
1.7894325
1.6440594
1.5391972
1.461836
1.4036443
1.3592326
1.3248752
1.2979482
1.2766042
1.2595252
1.2457549
1.2345821
1.2254725
1.2180133
1.2118848
1.2068356
22.498371
22.273096
21.245111
18.846434
15.061572
11.341601
8.4142717
6.3533047
4.9382468
3.997649
3.3056469
2.7217764
2.285355
1.992913
1.7888599
1.6435879
1.538808
1.4615088
1.4033638
1.3589869
1.3246551
1.2977472
1.2764174
1.2593492
1.2455869
1.2344204
1.2253153
1.2178597
1.2117341
1.2066867
22.499879
22.275836
21.25255
18.863647
15.083788
11.359536
8.4254702
6.359196
4.940778
3.9983012
3.3052909
2.721008
2.2846049
1.9922489
1.7882889
1.6431178
1.5384201
1.4611828
1.4030843
1.3587422
1.3244359
1.297547
1.2762312
1.2591739
1.2454195
1.2342595
1.2251588
1.2177066
1.2115839
1.2065384
22.501381
22.278566
21.25996
18.880826
15.106045
11.377532
8.4367271
6.3651172
4.9433218
3.9989586
3.3049369
2.7202404
2.2838556
1.991586
1.7877194
1.6426491
1.5380333
1.4608578
1.4028057
1.3584983
1.3242174
1.2973474
1.2760456
1.2589992
1.2452526
1.2340991
1.2250027
1.2175541
1.2114342
1.2063905
22.502878
22.281285
21.267343
18.897977
15.128341
11.395589
8.4480431
6.3710678
4.945878
3.9996213
3.3045848
2.7194734
2.2831073
1.9909244
1.7871513
1.6421819
1.5376478
1.4605341
1.4025282
1.3582552
1.3239997
1.2971485
1.2758607
1.2588251
1.2450864
1.2339393
1.2248475
1.2174024
1.211285
1.2062432
22.504368
22.283994
21.274697
18.915092
15.150676
11.413704
8.4594183
6.3770488
4.9484471
4.0002894
3.3042349
2.718707
2.2823597
1.990264
1.7865846
1.641716
1.5372634
1.4602113
1.4022515
1.358013
1.3237827
1.2969501
1.2756765
1.2586515
1.2449209
1.2337799
1.2246927
1.2172511
1.2111363
1.2060962
22.505853
22.286692
21.282025
18.932175
15.17305
11.43188
8.4708539
6.3830596
4.9510293
4.0009628
3.303887
2.7179415
2.281613
1.989605
1.7860195
1.6412515
1.5368802
1.4598897
1.4019758
1.3577716
1.3235665
1.2967526
1.2754932
1.2584786
1.2447561
1.2336212
1.2245387
1.2171005
1.2109881
1.2059499
22.507332
22.289379
21.289328
18.949228
15.195463
11.450115
8.4823498
6.3891011
4.9536243
4.0016417
3.3035412
2.7171769
2.2808674
1.9889473
1.7854559
1.6407884
1.5364983
1.4595691
1.4017011
1.357531
1.3233511
1.2965559
1.2753104
1.2583062
1.2445918
1.233463
1.2243852
1.2169505
1.2108405
1.2058041
22.508805
22.292055
21.296601
18.966246
15.217915
11.468409
8.4939069
6.3951731
4.9562324
4.0023261
3.3031975
2.7164131
2.2801228
1.9882908
1.7848938
1.6403267
1.5361177
1.4592496
1.4014273
1.3572913
1.3231366
1.2963601
1.2751284
1.2581346
1.2444283
1.2333054
1.2242324
1.2168012
1.2106934
1.2056588
22.510272
22.294719
21.303845
18.983232
15.240405
11.486762
8.5055258
6.4012755
4.9588536
4.0030161
3.3028559
2.7156501
2.2793789
1.9876356
1.7843331
1.6398663
1.5357383
1.458931
1.4011544
1.3570523
1.3229228
1.2961648
1.2749469
1.2579633
1.2442654
1.2331483
1.22408
1.2166522
1.2105468
1.205514
22.511733
22.297373
21.31106
19.000186
15.262934
11.505174
8.5172065
6.407409
4.9614883
4.0037117
3.3025165
2.7148879
2.2786358
1.9869816
1.7837739
1.6394073
1.5353602
1.4586135
1.4008826
1.3568142
1.3227099
1.2959703
1.2747663
1.2577931
1.2441031
1.2329918
1.2239283
1.2165039
1.2104008
1.2053698
22.513188
22.300015
21.318247
19.017105
15.2855
11.523644
8.5289498
6.4135729
4.9641365
4.004413
3.3021792
2.7141263
2.2778936
1.9863289
1.783216
1.6389496
1.5349831
1.458297
1.4006116
1.3565769
1.3224976
1.2957763
1.2745863
1.2576234
1.2439414
1.2328358
1.223777
1.2163561
1.2102554
1.2052263
22.514637
22.302645
21.325407
19.033993
15.308105
11.542172
8.5407559
6.4197683
4.966798
4.0051201
3.3018441
2.7133656
2.2771522
1.9856774
1.7826595
1.6384933
1.5346073
1.4579818
1.4003417
1.3563406
1.3222861
1.2955833
1.274407
1.2574545
1.2437803
1.2326805
1.2236264
1.2162089
1.2101106
1.2050834
22.51608
22.305264
21.332539
19.050847
15.330748
11.560759
8.5526254
6.4259946
4.9694732
4.0058329
3.3015112
2.7126057
2.2764118
1.985027
1.7821045
1.6380382
1.5342325
1.4576675
1.4000726
1.3561051
1.3220752
1.2953909
1.2742282
1.2572859
1.2436196
1.2325259
1.2234762
1.216062
1.2099665
1.2049411
22.517517
22.307871
21.339646
19.067667
15.353428
11.579403
8.5645586
6.4322524
4.9721623
4.0065516
3.3011805
2.7118466
2.2756722
1.9843779
1.7815509
1.6375845
1.5338589
1.4573544
1.3998044
1.3558705
1.3218652
1.2951992
1.2740501
1.2571183
1.2434596
1.2323719
1.2233267
1.2159159
1.209823
1.2047994
22.518949
22.310467
21.346725
19.084455
15.376145
11.598106
8.5765557
6.4385417
4.9748656
4.0072762
3.3008519
2.7110885
2.2749333
1.9837298
1.7809986
1.637132
1.5334865
1.4570421
1.3995371
1.3556367
1.321656
1.2950081
1.2738725
1.2569512
1.2433002
1.2322185
1.2231776
1.2157702
1.20968
1.2046581
22.520375
22.31305
21.353776
19.101209
15.3989
11.616866
8.5886172
6.4448622
4.9775827
4.0080067
3.3005255
2.7103311
2.2741951
1.9830828
1.7804475
1.6366808
1.5331153
1.4567309
1.3992706
1.3554039
1.3214475
1.2948178
1.2736957
1.2567849
1.2431414
1.2320658
1.2230292
1.2156251
1.2095376
1.2045175
22.521795
22.315622
21.360798
19.117928
15.421691
11.635684
8.600743
6.4512147
4.980314
4.0087432
3.3002014
2.7095744
2.2734576
1.982437
1.7798977
1.6362308
1.5327451
1.4564206
1.3990049
1.3551716
1.3212396
1.294628
1.2735194
1.256619
1.242983
1.2319136
1.2228812
1.2154805
1.2093957
1.2043773
22.523209
22.318181
21.367791
19.134616
15.44452
11.65456
8.6129336
6.4575987
4.9830598
4.0094856
3.2998794
2.7088184
2.272721
1.9817924
1.7793493
1.6357821
1.532376
1.4561113
1.3987403
1.3549401
1.3210325
1.2944389
1.2733441
1.2564538
1.2428255
1.2317621
1.222734
1.2153366
1.2092544
1.2042378
22.524617
22.320729
21.374756
19.151268
15.467385
11.673494
8.6251889
6.464015
4.9858204
4.0102341
3.2995596
2.7080633
2.2719853
1.9811487
1.7788022
1.6353345
1.532008
1.455803
1.3984766
1.3547093
1.3208262
1.2942507
1.2731693
1.2562892
1.2426686
1.2316111
1.2225874
1.2151933
1.2091135
1.2040987
22.52602
22.323264
21.381694
19.167885
15.490287
11.692487
8.6375088
6.4704629
4.9885955
4.0109887
3.299242
2.707309
2.2712503
1.9805062
1.7782564
1.6348881
1.531641
1.4554957
1.3982138
1.3544795
1.3206209
1.2940633
1.2729953
1.2561252
1.2425124
1.2314608
1.2224415
1.2150507
1.2089733
1.2039602
22.527417
22.325787
21.388604
19.184471
15.513224
11.711536
8.6498936
6.4769432
4.9913853
4.0117493
3.2989265
2.7065556
2.2705158
1.9798644
1.7777116
1.6344428
1.5312751
1.4551892
1.3979518
1.3542503
1.3204161
1.2938764
1.2728217
1.2559616
1.2423566
1.2313108
1.222296
1.2149086
1.2088335
1.2038221
22.528808
22.328297
21.395489
19.201019
15.536198
11.730646
8.662343
6.4834556
4.9941904
4.0125162
3.2986131
2.705803
2.269782
1.9792238
1.7771679
1.6339987
1.5309102
1.4548838
1.3976908
1.354022
1.320212
1.2936902
1.272649
1.2557988
1.2422017
1.2311616
1.2221513
1.2147671
1.2086943
1.2036846
22.530194
22.330795
21.402347
19.217534
15.559208
11.749815
8.6748568
6.4900004
4.9970109
4.0132893
3.2983018
2.7050509
2.2690489
1.9785841
1.7766254
1.6335557
1.5305464
1.4545792
1.3974306
1.3537943
1.3200086
1.2935046
1.2724769
1.2556365
1.2420472
1.2310128
1.222007
1.2146262
1.2085556
1.2035476
22.531574
22.333279
21.409175
19.234016
15.582252
11.769042
8.6874347
6.4965778
4.9998467
4.0140688
3.2979925
2.7042996
2.2683166
1.9779454
1.7760841
1.6331138
1.5301837
1.4542756
1.3971712
1.3535676
1.319806
1.2933198
1.2723055
1.2554751
1.2418935
1.2308647
1.2218634
1.2144858
1.2084175
1.2034112
22.532948
22.33575
21.415975
19.25046
15.605334
11.788331
8.7000761
6.5031877
5.002698
4.0148547
3.2976852
2.7035489
2.267585
1.9773075
1.7755439
1.6326729
1.5298217
1.4539727
1.3969124
1.3533417
1.3196038
1.2931357
1.2721345
1.2553142
1.2417402
1.2307169
1.2217202
1.2143459
1.2082798
1.2032752
22.534317
22.338209
21.422746
19.26687
15.628449
11.807682
8.7127809
6.5098305
5.0055653
4.0156471
3.2973799
2.7027991
2.266854
1.9766704
1.7750047
1.632233
1.5294607
1.4536708
1.3966543
1.3531166
1.3194027
1.2929522
1.2719643
1.2551539
1.2415876
1.2305699
1.2215777
1.2142066
1.2081428
1.20314
22.535681
22.340653
21.429488
19.283246
15.651599
11.827093
8.7255481
6.516506
5.0084487
4.0164461
3.2970766
2.70205
2.2661234
1.9760341
1.7744664
1.6317941
1.5291006
1.4533697
1.396397
1.3528921
1.3192021
1.2927694
1.2717946
1.2549943
1.2414355
1.2304235
1.2214357
1.2140678
1.2080064
1.2030053
22.537038
22.343085
21.436203
19.299585
15.674784
11.846569
8.7383768
6.5232149
5.0113482
4.0172517
3.2967753
2.7013017
2.2653935
1.9753986
1.773929
1.6313561
1.5287413
1.4530695
1.3961406
1.3526684
1.3190022
1.2925872
1.2716256
1.2548354
1.241284
1.2302778
1.2212942
1.2139297
1.2078707
1.2028713
22.53839
22.345502
21.44289
19.315888
15.698001
11.86611
8.7512667
6.5299567
5.0142639
4.0180641
3.2964759
2.7005539
2.2646641
1.9747638
1.7733925
1.630919
1.5283829
1.4527702
1.3958848
1.3524451
1.3188028
1.2924054
1.271457
1.2546769
1.2411329
1.2301325
1.2211532
1.2137919
1.2077354
1.2027377
22.539737
22.347907
21.44955
19.332157
15.721254
11.885717
8.7642161
6.5367324
5.0171964
4.0188831
3.2961785
2.6998066
2.2639354
1.9741297
1.7728569
1.6304828
1.5280254
1.4524717
1.39563
1.3522226
1.3186041
1.2922244
1.2712891
1.2545191
1.2409825
1.2299879
1.2210128
1.2136547
1.2076007
1.2026048
22.541078
22.350297
21.456185
19.348387
15.744539
11.905392
8.7772242
6.5435414
5.0201458
4.0197091
3.295883
2.6990598
2.2632072
1.9734962
1.7723223
1.6300475
1.5276688
1.4521738
1.395376
1.3520007
1.3184061
1.2920439
1.2711219
1.2543618
1.2408325
1.2298439
1.2208728
1.213518
1.2074665
1.2024722
22.542413
22.352673
21.46279
19.364581
15.767856
11.925137
8.7902904
6.5503847
5.023112
4.0205419
3.2955895
2.6983137
2.2624794
1.9728632
1.7717884
1.629613
1.5273131
1.4518766
1.3951228
1.3517796
1.3182089
1.2918642
1.2709553
1.2542052
1.2406833
1.2297004
1.2207335
1.2133818
1.2073329
1.2023403
22.543744
22.355034
21.469366
19.380741
15.791206
11.94495
8.803415
6.5572618
5.0260953
4.0213817
3.2952979
2.6975683
2.2617517
1.9722307
1.7712551
1.6291791
1.5269579
1.4515799
1.3948701
1.3515591
1.3180122
1.2916851
1.2707892
1.2540489
1.2405345
1.2295574
1.2205947
1.2132462
1.2071997
1.2022088
22.545068
22.357381
21.475912
19.39686
15.814586
11.964832
8.8165981
6.5641736
5.0290961
4.0222284
3.2950084
2.6968235
2.2610245
1.9715987
1.7707225
1.6287461
1.5266034
1.451284
1.3946181
1.3513392
1.3178162
1.2915066
1.2706238
1.2538933
1.2403864
1.229415
1.2204565
1.2131112
1.2070672
1.2020778
22.546388
22.359713
21.482429
19.412943
15.837999
11.984783
8.8298402
6.5711199
5.0321145
4.0230822
3.294721
2.6960794
2.2602976
1.9709672
1.7701905
1.6283137
1.5262496
1.4509888
1.3943666
1.3511199
1.3176207
1.2913286
1.2704589
1.2537381
1.2402388
1.2292731
1.2203189
1.2129767
1.206935
1.2019473
22.547702
22.362031
21.488918
19.42899
15.86144
12.004804
8.8431412
6.5781012
5.0351505
4.0239432
3.2944356
2.6953356
2.2595713
1.9703361
1.7696592
1.6278821
1.5258965
1.4506944
1.3941157
1.3509014
1.3174258
1.2911512
1.2702947
1.2535836
1.2400919
1.2291318
1.2201818
1.2128429
1.2068034
1.2018173
22.549011
22.364333
21.495378
19.444997
15.884912
12.024892
8.8565016
6.5851177
5.0382044
4.0248114
3.2941522
2.6945921
2.258845
1.9697052
1.7691285
1.627451
1.5255439
1.4504006
1.3938652
1.3506835
1.3172313
1.2909743
1.2701309
1.2534295
1.2399453
1.2289908
1.2200452
1.2127094
1.2066722
1.2016877
22.550314
22.36662
21.501811
19.460966
15.908412