/*--------------------------------*- C++ -*----------------------------------*\
| =========                 |                                                 |
| \\      /  F ield         | OpenFOAM: The Open Source CFD Toolbox           |
|  \\    /   O peration     | Version:  v2012                                 |
|   \\  /    A nd           | Website:  www.openfoam.com                      |
|    \\/     M anipulation  |                                                 |
\*---------------------------------------------------------------------------*/
FoamFile
{
    version     2.0;
    format      ascii;
    class       volScalarField;
    location    "600";
    object      T;
}
// * * * * * * * * * * * * * * * * * * * * * * * * * * * * * * * * * * * * * //

dimensions      [0 0 0 1 0 0 0];


internalField   nonuniform List<scalar> 
24000
(
42.653691
42.839746
43.775249
46.636977
53.099582
64.255706
80.570215
101.47526
125.87637
151.04951
179.02506
215.29834
255.65781
293.0302
326.9191
357.01308
382.66122
404.13481
421.95077
436.61839
448.64367
458.50266
466.59952
473.26248
478.75496
483.28867
487.03462
490.13164
492.69298
494.81133
42.65275
42.837923
43.768461
46.614098
53.052107
64.186496
80.48496
101.37673
125.7858
150.98089
178.98072
215.27344
255.65438
293.06125
326.98126
357.09192
382.74721
404.22132
422.03356
436.69557
448.71497
458.56863
466.66099
473.32029
478.80992
483.34149
487.0859
490.18188
492.74258
494.86066
42.65179
42.83604
43.761332
46.59121
53.006251
64.120219
80.402242
101.29332
125.72089
150.94609
178.97439
215.29377
255.6971
293.13082
327.07229
357.19132
382.84759
404.31886
422.12592
436.78172
448.79509
458.64345
466.73142
473.38723
478.87416
483.4037
487.14665
490.24163
492.80173
494.91952
42.650829
42.834118
43.754173
46.568568
52.9612
64.05425
80.322301
101.2154
125.66217
150.91801
178.97767
215.32517
255.74851
293.20387
327.16101
357.28266
382.93592
404.40237
422.2042
436.85511
448.8644
458.70948
466.79483
473.44857
478.93388
483.46219
487.20422
490.29855
492.85824
494.97579
42.649868
42.832181
43.747012
46.546084
52.916614
63.988358
80.244396
101.14129
125.6084
150.89587
178.98931
215.36861
255.81412
293.291
327.26345
357.38773
383.038
404.49956
422.29581
436.94129
448.94583
458.78699
466.86918
473.52042
479.00378
483.53061
487.27155
490.36512
492.9243
495.04158
42.648909
42.830239
43.739879
46.523759
52.872326
63.922535
80.167721
101.06937
125.55741
150.87722
179.00613
215.41969
255.88885
293.38722
327.37463
357.50105
383.14778
404.60395
422.39427
437.03407
449.03376
458.87096
466.95
473.59876
479.08021
483.60558
487.34544
490.43825
492.99694
495.11393
42.647953
42.828298
43.732784
46.501562
52.82827
63.856737
80.091809
100.99883
125.50812
150.86081
179.02667
215.47612
255.97002
293.48988
327.492
357.62016
383.26286
404.71317
422.49717
437.131
449.12563
458.95875
467.03456
473.68079
479.16029
483.68418
487.42295
490.51499
493.07316
495.18986
42.647
42.826361
43.725739
46.479483
52.784354
63.790958
80.016375
100.92915
125.45981
150.84589
179.04993
215.53617
256.05558
293.59693
327.61356
357.74321
383.38158
404.82576
422.60322
437.23093
449.22041
459.04938
467.12191
473.76559
479.24313
483.76553
487.5032
490.59446
493.15211
495.26851
42.646049
42.824431
43.718743
46.457516
52.740594
63.725183
79.941223
100.85997
125.41226
150.832
179.0748
215.59869
256.14415
293.70695
327.73792
357.86886
383.50266
404.9405
422.71126
437.33273
449.31697
459.14175
467.21098
473.8521
479.32766
483.84857
487.58514
490.67562
493.23275
495.34883
42.645102
42.822507
43.711784
46.435644
52.69692
63.659398
79.866236
100.7911
125.36524
150.8188
179.10067
215.66294
256.23482
293.81902
327.8642
357.99627
383.62536
405.05672
422.82068
437.43584
449.4148
459.23535
467.30127
473.93982
479.41339
483.93281
487.66827
490.75796
493.31456
495.43034
42.644159
42.82059
43.704862
46.41388
52.653343
63.593609
79.791325
100.72238
125.31855
150.80608
179.12724
215.72842
256.32697
293.93252
327.99177
358.12485
383.7491
405.1739
422.93097
437.53978
449.51342
459.32973
467.39233
474.02829
479.49989
484.0178
487.75215
490.84105
493.39713
495.51259
42.643218
42.818681
43.697975
46.3922
52.609844
63.527802
79.716437
100.65372
125.27203
150.79366
179.15433
215.79482
256.42019
294.04703
328.12023
358.2542
383.87354
405.2917
423.04185
437.64426
449.61258
459.42464
467.4839
474.11728
479.58689
484.10331
487.83655
490.92466
493.48021
495.59536
42.642281
42.816778
43.691128
46.370614
52.566402
63.461988
79.641528
100.58505
125.22559
150.78143
179.1818
215.8619
256.51418
294.16223
328.24928
358.38406
383.99841
405.40987
423.15306
437.74907
449.71204
459.51985
467.57578
474.20658
479.67421
484.18912
487.92126
491.00858
493.5636
495.67843
42.641347
42.814882
43.684326
46.34912
52.523044
63.396158
79.566569
100.51632
125.17917
150.76933
179.20954
215.9295
256.60875
294.27792
328.37871
358.51423
384.12355
405.52828
423.2645
437.85408
449.81171
459.61526
467.66786
474.29608
479.76173
484.27514
488.00617
491.0927
493.64719
495.76171
42.640417
42.812994
43.677566
46.327701
52.47972
63.33031
79.491537
100.44749
125.13273
150.75728
179.23749
215.99751
256.70375
294.39397
328.50837
358.64456
384.24881
405.64678
423.376
437.95916
449.91145
459.71074
467.76002
474.38565
479.84932
484.36124
488.09117
491.17691
493.73087
495.84508
42.639491
42.811114
43.670837
46.306376
52.436476
63.26445
79.416418
100.37854
125.08621
150.74525
179.2656
216.06582
256.79909
294.51025
328.63817
358.77497
384.37409
405.7653
423.48751
438.06425
450.0112
459.80624
467.8522
474.47526
479.93695
484.44738
488.1762
491.26115
493.81458
495.92848
42.638567
42.809242
43.66414
46.285118
52.393269
63.19857
79.341197
100.30945
125.03958
150.73321
179.29382
216.13439
256.89467
294.62669
328.76803
358.90536
384.49934
405.88375
423.59896
438.16927
450.11089
459.90168
467.94432
474.56481
480.02453
484.53347
488.26119
491.34535
493.89826
496.01184
42.637647
42.807376
43.657475
46.263955
52.350116
63.132683
79.265865
100.24019
124.99283
150.72113
179.32212
216.20315
256.99043
294.74323
328.89788
359.03569
384.6245
406.00212
423.71032
438.27422
450.2105
459.99707
468.03639
474.65431
480.11207
484.61951
488.34613
491.42951
493.9819
496.09516
42.636731
42.805517
43.650844
46.24287
52.307019
63.066778
79.190415
100.17077
124.94595
150.70899
179.35047
216.27208
257.08634
294.85981
329.02767
359.16591
384.74953
406.12034
423.82152
438.37901
450.30998
460.09231
468.12833
474.74369
480.19948
484.70544
488.43096
491.51357
494.06542
496.17837
42.635818
42.803665
43.644257
46.221858
52.263952
63.000859
79.114841
100.10117
124.89893
150.69679
179.37887
216.34115
257.18235
294.9764
329.15738
359.29599
384.87439
406.23838
423.93256
438.48365
450.40931
460.18743
468.22015
474.83295
480.28678
484.79126
488.51569
491.59751
494.14884
496.26148
42.634909
42.801819
43.637708
46.200936
52.220961
62.934929
79.039138
100.03137
124.85175
150.6845
179.4073
216.41034
257.27845
295.09299
329.28696
359.42589
384.99905
406.35622
424.0434
438.5881
450.50846
460.28236
468.31179
474.92205
480.37392
484.87693
488.60026
491.6813
494.23211
496.34443
42.634003
42.799984
43.631188
46.180076
52.177993
62.868986
78.963301
99.961383
124.8044
150.67212
179.43574
216.47964
257.37462
295.20954
329.41643
359.55562
385.12353
406.47387
424.15406
438.69238
450.60746
460.37715
468.4033
475.01101
480.46094
484.96246
488.6847
491.76497
494.31526
496.42727
42.633102
42.798155
43.624699
46.159312
52.13509
62.803036
78.887327
99.891197
124.75686
150.65964
179.4642
216.54903
257.47083
295.32605
329.54575
359.68514
385.24777
406.59129
424.26449
438.79644
450.70624
460.47174
468.49461
475.09979
480.54776
485.04782
488.76897
491.84846
494.39823
496.50993
42.632205
42.796333
43.618239
46.13862
52.092227
62.737073
78.811215
99.820798
124.70916
150.64706
179.49265
216.61848
257.56706
295.44249
329.67489
359.81445
385.37179
406.70849
424.3747
438.9003
450.80482
460.56614
468.58574
475.18839
480.63442
485.13301
488.85308
491.93179
494.48104
496.59243
42.631311
42.794516
43.611808
46.118
52.049405
62.671101
78.73496
99.750195
124.66127
150.63437
179.5211
216.688
257.66332
295.55885
329.80386
359.94352
385.49556
406.82542
424.48466
439.00391
450.90318
460.66033
468.67666
475.27679
480.72088
485.21801
488.93699
492.01494
494.56367
496.67475
42.63042
42.792707
43.605422
46.097471
52.006646
62.605125
78.658562
99.679382
124.6132
150.62157
179.54954
216.75759
257.75959
295.67513
329.93264
360.07238
385.6191
406.94213
424.5944
439.10731
451.00134
460.75433
468.76741
475.36501
480.80718
485.30284
489.02075
492.09792
494.64614
496.75691
42.629533
42.790903
43.599074
46.077
51.96391
62.53914
78.582017
99.608348
124.56494
150.60865
179.57796
216.82724
257.85588
295.79131
330.06124
360.20098
385.74236
407.05856
424.70387
439.21046
451.09926
460.84809
468.85793
475.45302
480.89326
485.38747
489.1043
492.1807
494.7284
496.83887
42.62865
42.789106
43.592754
46.056628
51.921251
62.473152
78.505327
99.5371
124.51648
150.59562
179.60636
216.89694
257.95216
295.9074
330.18963
360.32933
385.86537
407.17474
424.8131
439.31338
451.19696
460.94165
468.94825
475.54084
480.97916
485.47191
489.18766
492.2633
494.81049
496.92065
42.62777
42.787315
43.586463
46.036324
51.878621
62.407158
78.428484
99.465633
124.46782
150.58246
179.63475
216.96668
258.04843
296.02338
330.31782
360.45743
385.9881
407.29063
424.92205
439.41604
451.29441
461.03497
469.03834
475.62843
481.06483
485.55613
489.27082
492.34569
494.89237
497.00222
42.626894
42.785531
43.580202
46.016091
51.836043
62.341159
78.351496
99.393941
124.41897
150.56918
179.66311
217.03646
258.14469
296.13926
330.4458
360.58528
386.11058
407.40628
425.03077
439.51848
451.39166
461.12809
469.12824
475.71584
481.15033
485.64018
489.3538
492.42791
494.97407
497.08362
42.626021
42.783753
43.573968
45.995952
51.793519
62.275169
78.27435
99.322029
124.36992
150.55578
179.69145
217.10628
258.24094
296.25502
330.57358
360.71288
386.23277
407.52165
425.13921
439.62064
451.48864
461.22096
469.2179
475.80301
481.23559
485.724
489.43655
492.50991
495.05556
497.1648
42.625152
42.781981
43.567772
45.975868
51.751027
62.209171
78.197057
99.249889
124.32067
150.54225
179.71975
217.17615
258.33718
296.37068
330.70115
360.84021
386.3547
407.63675
425.24739
439.72257
451.5854
461.31361
469.30736
475.88998
481.32066
485.80764
489.51912
492.59172
495.13686
497.2458
42.624287
42.780216
43.561616
45.955884
51.708607
62.143176
78.119604
99.177522
124.27121
150.52859
179.74803
217.24606
258.43341
296.48623
330.82851
360.96728
386.47634
407.75156
425.3553
439.82422
451.68189
461.40602
469.39656
475.97672
481.4055
485.89104
489.60147
492.67331
495.21794
497.32658
42.623425
42.778458
43.555491
45.935967
51.666216
62.077185
78.042001
99.10493
124.22155
150.51479
179.77628
217.31601
258.52963
296.60167
330.95566
361.0941
386.59773
407.86612
425.46296
439.92565
451.77818
461.49822
469.48558
476.06326
481.49015
485.97427
489.68363
492.75472
495.29885
497.40718
42.622566
42.776705
43.549394
45.91612
51.623888
62.011197
77.964232
99.032101
124.17168
150.50087
179.8045
217.38599
258.62582
296.71699
331.08259
361.22065
386.71883
407.98038
425.57033
440.0268
451.87419
461.59016
469.57434
476.14956
481.57456
486.05725
489.76556
492.8359
495.37952
497.48755
42.621712
42.774962
43.543325
45.896379
51.581615
61.945169
77.886309
98.959042
124.1216
150.48681
179.83268
217.45601
258.722
296.8322
331.20932
361.34694
386.83965
408.09438
425.67744
440.1277
451.96997
461.68188
469.66289
476.23565
481.65877
486.14003
489.8473
492.91688
495.46
497.56773
42.620861
42.773225
43.537284
45.876703
51.539393
61.879093
77.808218
98.88575
124.07132
150.47261
179.86084
217.52607
258.81817
296.94729
331.33583
361.47297
386.96019
408.20808
425.78427
440.22833
452.06549
461.77334
469.75118
476.3215
481.74274
486.22258
489.92879
492.99763
495.54025
497.64768
42.620015
42.771495
43.531271
45.857133
51.49725
61.812975
77.729973
98.812217
124.02081
150.45828
179.88896
217.59616
258.91433
297.06229
331.46215
361.59875
387.08048
408.32154
425.89086
440.32874
452.16079
461.86461
469.83929
476.40716
481.82653
486.30495
490.01012
493.07821
495.62033
497.72746
42.619173
42.769771
43.525301
45.837644
51.455146
61.746826
77.651558
98.738451
123.97009
150.4438
179.91704
217.66628
259.01047
297.17717
331.58824
361.72427
387.20048
408.4347
425.99716
440.42886
452.25583
461.9556
469.92714
476.49257
481.91007
486.38708
490.0912
493.15855
495.70017
497.807
42.618335
42.768054
43.519365
45.81823
51.413127
61.680628
77.572988
98.664444
123.91916
150.42919
179.94508
217.73645
259.10659
297.29193
331.71413
361.84952
387.3202
408.54759
426.10319
440.52873
452.35062
462.04638
470.01477
476.57777
481.9934
486.469
490.17208
493.23869
495.77981
497.88634
42.6175
42.766344
43.513457
45.798924
51.371158
61.614396
77.494248
98.590194
123.86801
150.41443
179.97308
217.80664
259.20269
297.40658
331.83979
361.9745
387.43963
408.66018
426.20894
440.62832
452.44514
462.13688
470.10214
476.66272
482.07649
486.55068
490.25272
493.31858
495.85921
497.96545
42.616669
42.764642
43.507576
45.779684
51.32925
61.548132
77.415348
98.515705
123.81665
150.39952
180.00104
217.87687
259.29877
297.52111
331.96525
362.09923
387.5588
408.77252
426.31444
440.72768
452.53945
462.22718
470.18931
476.74747
482.15939
486.63218
490.33318
493.39831
495.93844
498.04438
42.615842
42.762949
43.501722
45.76054
51.28742
61.481827
77.33628
98.440968
123.76506
150.38447
180.02896
217.94713
259.39483
297.63553
332.09049
362.22369
387.67768
408.88456
426.41963
440.82675
452.63347
462.3172
470.27622
476.83196
482.24202
486.71341
490.41338
493.47777
496.01741
498.12305
42.615018
42.761262
43.495895
45.741485
51.245636
61.415495
77.257048
98.365986
123.71324
150.36927
180.05683
218.0174
259.49088
297.74984
332.21552
362.34788
387.79628
408.99631
426.52457
440.92556
452.72725
462.40699
470.36289
476.91622
482.32444
486.79444
490.49337
493.55703
496.09617
498.20152
42.614198
42.759582
43.490097
45.722496
51.203937
61.349131
77.177651
98.290759
123.6612
150.35392
180.08466
218.08771
259.58692
297.86403
332.34034
362.47181
387.91459
409.10777
426.6292
441.02408
452.82074
462.49651
470.4493
477.00023
482.4066
486.8752
490.57311
493.63603
496.17468
498.27974
42.613382
42.757909
43.484342
45.703619
51.16229
61.282733
77.098083
98.215277
123.60895
150.33842
180.11244
218.15806
259.68292
297.97812
332.46495
362.59549
388.03264
409.21898
426.7336
441.12238
452.91403
462.58582
470.53551
477.08404
482.48858
486.95579
490.65267
493.71486
496.25302
498.35779
42.612569
42.756243
43.478616
45.68481
51.120714
61.216316
77.018352
98.139548
123.55647
150.32277
180.14018
218.22843
259.77891
298.09209
332.58935
362.71891
388.15041
409.3299
426.8377
441.22039
453.00703
462.67486
470.62146
477.16759
482.57029
487.03612
490.73197
493.79343
496.33111
498.43558
42.61176
42.754584
43.472918
45.666083
51.079212
61.149867
76.938446
98.063565
123.50375
150.30696
180.16787
218.29884
259.8749
298.20596
332.71355
362.84207
388.2679
409.44054
426.94154
441.31815
453.09979
462.76367
470.70718
477.25093
482.65179
487.11624
490.81107
493.8718
496.40899
498.51317
42.610954
42.752931
43.467245
45.647457
51.037766
61.083391
76.858376
97.987326
123.4508
150.291
180.19551
218.36928
259.97087
298.31973
332.83754
362.96497
388.38511
409.55089
427.04508
441.41562
453.19228
462.8522
470.79264
477.334
482.73304
487.1961
490.88992
493.94992
496.48662
498.59052
42.610153
42.751286
43.461599
45.628892
50.996403
61.016905
76.778129
97.910834
123.39762
150.27488
180.2231
218.43975
260.06684
298.4334
332.96135
363.08763
388.50207
409.66099
427.14839
441.51286
453.28455
462.94053
470.8779
477.41688
482.8141
487.27578
490.96858
494.02786
496.56407
498.66768
42.609354
42.749647
43.45598
45.61043
50.955096
60.950387
76.697716
97.834081
123.34422
150.25861
180.25064
218.51024
260.1628
298.54696
333.08494
363.21003
388.61874
409.77079
427.2514
441.60981
453.37653
463.02858
470.96287
477.49949
482.89488
487.35519
491.04698
494.10553
496.64126
498.74458
42.60856
42.748016
43.450388
45.592047
50.913868
60.883851
76.617126
97.757071
123.29058
150.24217
180.27813
218.58077
260.25874
298.66042
333.20833
363.33218
388.73514
409.88032
427.35414
441.70651
453.46827
463.11639
471.04763
477.58187
482.97545
487.43439
491.12516
494.18299
496.71824
498.82127
42.607769
42.746391
43.444839
45.573729
50.872713
60.81731
76.536366
97.6798
123.2367
150.22558
180.30556
218.65133
260.35467
298.77378
333.33153
363.45407
388.85127
409.98956
427.45659
441.80292
453.55972
463.20393
471.1321
477.66398
483.05575
487.51332
491.20308
494.26019
496.79496
498.8977
42.606981
42.744774
43.439318
45.555525
50.831622
60.750741
76.45543
97.602264
123.18258
150.20882
180.33293
218.72192
260.4506
298.88706
333.45454
363.57573
388.96714
410.09855
427.55881
441.8991
453.65096
463.29126
471.21638
477.7459
483.13586
487.59206
491.28081
494.33721
496.87149
498.97395
42.606197
42.743164
43.433823
45.537383
50.790612
60.684164
76.374317
97.524468
123.12822
150.19189
180.36024
218.79254
260.54653
299.00024
333.57736
363.69714
389.08274
410.20726
427.66073
441.995
453.74192
463.37831
471.30038
477.82754
483.2157
487.67054
491.35828
494.41396
496.94776
499.04994
42.605417
42.741561
43.428354
45.519324
50.749662
60.617584
76.293029
97.446402
123.07363
150.1748
180.3875
218.8632
260.64247
299.11333
333.69999
363.81831
389.19808
410.3157
427.7624
442.09065
453.83263
463.46513
471.38416
477.90897
483.29532
487.7488
491.43554
494.4905
497.02383
499.12572
42.60464
42.739967
43.422911
45.501361
50.708798
60.550982
76.21156
97.368071
123.01879
150.15754
180.4147
218.93387
260.7384
299.22634
333.82243
363.93923
389.31315
410.42386
427.86377
442.18601
453.92307
463.55167
471.46767
477.99013
483.37468
487.8268
491.51253
494.56678
497.09963
499.20124
42.603867
42.738382
43.417493
45.48346
50.668007
60.48438
76.129915
97.289472
122.96371
150.14011
180.44184
219.00459
260.83433
299.33927
333.9447
364.05994
389.42798
410.53178
427.96492
442.28115
454.0133
463.63801
471.55098
478.07109
483.45385
487.90461
491.58934
494.64288
497.17525
499.27658
42.603098
42.736803
43.4121
45.465657
50.627287
60.41778
76.048084
97.210601
122.90838
150.1225
180.46892
219.07534
260.93027
299.45212
334.06679
364.1804
389.54253
410.63941
428.06577
442.376
454.10324
463.72406
471.63401
478.15178
483.53274
487.98215
491.66588
494.71871
497.2506
499.35165
42.602332
42.735233
43.406749
45.447933
50.586648
60.351166
75.966077
97.131463
122.85281
150.10472
180.49594
219.14612
261.02622
299.5649
334.18871
364.30063
389.65684
410.74678
428.16637
442.4706
454.19293
463.80988
471.7168
478.23224
483.61141
488.05946
491.7422
494.79432
497.32574
499.4265
42.601569
42.73367
43.401428
45.43027
50.546075
60.284558
75.883884
97.052047
122.79699
150.08677
180.52288
219.21694
261.12219
299.6776
334.31045
364.42063
389.77089
410.85388
428.26669
442.56492
454.28235
463.89543
471.79933
478.31243
483.68981
488.13652
491.81825
494.86966
497.40061
499.50109
42.600811
42.732114
43.396131
45.41272
50.50559
60.217958
75.801506
96.97236
122.74091
150.06863
180.54977
219.28778
261.21817
299.79023
334.43204
364.54043
389.88471
410.96075
428.36678
442.65902
454.37156
463.98077
471.88165
478.39242
483.76802
488.21337
491.89412
494.94482
497.47529
499.57549
42.600055
42.730567
43.39086
45.395234
50.46518
60.151351
75.718944
96.892397
122.68458
150.05031
180.57658
219.35866
261.31415
299.9028
334.55345
364.65999
389.99827
411.06734
428.46659
442.75285
454.46049
464.06583
471.96371
478.47215
483.84596
488.28997
491.96972
495.01971
497.54972
499.64964
42.599303
42.729027
43.385615
45.377819
50.424847
60.084757
75.636191
96.812157
122.62801
150.03181
180.60332
219.42956
261.41016
300.0153
334.67471
364.77934
390.11159
411.17369
428.56616
442.84643
454.54919
464.15068
472.04554
478.55165
483.92368
488.36635
492.04511
495.0944
497.62393
499.72357
42.598556
42.727498
43.380394
45.360509
50.384596
60.018179
75.553252
96.731641
122.57118
150.01313
180.63
219.50049
261.50618
300.12775
334.7958
364.89847
390.22466
411.27978
428.66545
442.93975
454.63762
464.23525
472.12711
478.6309
484.00115
488.44247
492.12024
495.16883
497.69789
499.79726
42.597812
42.725978
43.375198
45.343258
50.344417
59.951601
75.470119
96.650844
122.51409
149.99426
180.65659
219.57147
261.60224
300.24015
334.91676
365.01741
390.33752
411.38564
428.76453
443.03285
454.72585
464.31963
472.20848
478.70995
484.07842
488.5184
492.19519
495.24307
497.77166
499.87075
42.597072
42.724465
43.370034
45.326092
50.304326
59.885042
75.386798
96.56977
122.45674
149.97521
180.68311
219.64247
261.69833
300.3525
335.03756
365.13613
390.45013
411.49123
428.86333
443.12567
454.81379
464.40372
472.28958
478.78873
484.15542
488.59406
492.26986
495.31704
497.84517
499.94398
42.596336
42.722961
43.364907
45.309017
50.264314
59.818508
75.303282
96.488413
122.39913
149.95597
180.70955
219.7135
261.79444
300.46479
335.15822
365.25465
390.56251
411.59658
428.96189
443.21826
454.90151
464.48759
472.37045
478.86728
484.2322
488.6695
492.34431
495.39079
497.91845
500.01699
42.595603
42.721464
43.359806
45.292001
50.224386
59.751982
75.21957
96.406776
122.34127
149.93653
180.73591
219.78456
261.89057
300.57704
335.27873
365.37296
390.67465
411.70167
429.06017
443.31057
454.98895
464.57118
472.45105
478.94556
484.30871
488.74468
492.4185
495.46428
497.99148
500.08974
42.594873
42.719976
43.354729
45.27508
50.184538
59.68548
75.135661
96.324856
122.28314
149.9169
180.76219
219.85564
261.98674
300.68926
335.39911
365.49109
390.78658
411.80655
429.15825
443.40267
455.07618
464.65458
472.53145
479.02365
484.38503
488.81966
492.4925
495.53758
498.06431
500.1623
42.594146
42.718496
43.349677
45.258238
50.144771
59.619015
75.051551
96.242652
122.22474
149.89708
180.78839
219.92676
262.08294
300.80143
335.51935
365.60902
390.89827
411.91117
429.25606
443.49451
455.16315
464.7377
472.61158
479.10147
484.46108
488.89437
492.56623
495.61061
498.13688
500.2346
42.593423
42.717025
43.344649
45.241455
50.105089
59.552565
74.967244
96.160167
122.16607
149.87706
180.8145
219.9979
262.17919
300.91358
335.63946
365.72676
391.00976
412.01557
429.35364
443.58611
455.24989
464.82061
472.6915
479.17908
484.53692
488.96888
492.63975
495.68344
498.20924
500.30668
42.592704
42.715562
43.339647
45.224777
50.065492
59.486144
74.882735
96.077396
122.10714
149.85684
180.84052
220.06907
262.27549
301.02568
335.75945
365.84431
391.12102
412.11972
429.45096
443.67746
455.33637
464.90325
472.77115
479.25642
484.61249
489.04312
492.71301
495.756
498.28134
500.37851
42.591988
42.714107
43.334669
45.208167
50.025985
59.419773
74.798022
95.994344
122.04794
149.83642
180.86645
220.14027
262.37183
301.13778
335.87933
365.9617
391.23209
412.22368
429.54809
443.76862
455.42267
464.98571
472.85062
479.33358
484.68789
489.11718
492.78609
495.82839
498.35327
500.45017
42.591275
42.712662
43.329727
45.19162
49.986558
59.353426
74.713105
95.911005
121.98846
149.81579
180.89229
220.2115
262.46821
301.24986
335.99908
366.07891
391.34294
412.32739
429.64496
443.85951
455.50869
465.06789
472.92982
479.41047
484.76301
489.19098
492.8589
495.90051
498.42492
500.52155
42.590566
42.711224
43.324817
45.175179
49.947219
59.287111
74.627978
95.827383
121.92871
149.79497
180.91804
220.28275
262.56465
301.36192
336.11873
366.19594
391.45359
412.43088
429.74161
443.95018
455.5945
465.14987
473.00881
479.48715
484.83793
489.26456
492.93151
495.97242
498.49637
500.59273
42.589859
42.709796
43.319931
45.158801
49.907965
59.22086
74.542648
95.743478
121.86868
149.77394
180.9437
220.35402
262.66115
301.47397
336.23826
366.3128
391.56403
412.53414
429.83801
444.04059
455.68005
465.23158
473.08753
479.56357
484.91258
489.33788
493.00385
496.04406
498.56756
500.66365
42.589157
42.708376
43.31507
45.142489
49.868799
59.154644
74.457107
95.659287
121.80839
149.7527
180.96927
220.42532
262.75771
301.58602
336.35771
366.42952
391.6743
412.63722
429.93422
444.13082
455.76541
465.31311
473.16607
479.63981
484.98705
489.41102
493.07601
496.11553
498.63857
500.73439
42.588457
42.706966
43.310233
45.126281
49.82973
59.088465
74.371353
95.574816
121.7478
149.73125
180.99474
220.49665
262.85434
301.69806
336.47705
366.54607
391.78437
412.74007
430.0302
444.2208
455.85052
465.39438
473.24436
479.71578
485.06126
489.4839
493.14791
496.18674
498.70931
500.80487
42.587761
42.705564
43.305421
45.110133
49.79074
59.02236
74.285387
95.490058
121.68692
149.7096
181.02012
220.56801
262.95102
301.8101
336.59631
366.66248
391.89426
412.84273
430.12597
444.31058
455.93543
465.47545
473.32244
479.79155
485.13526
489.55658
493.21961
496.25775
498.77986
500.87515
42.587068
42.704173
43.300633
45.094056
49.751845
58.956303
74.199207
95.405022
121.62577
149.68773
181.0454
220.63938
263.04777
301.92215
336.71547
366.77874
392.00396
412.94517
430.22151
444.40011
456.02009
465.55627
473.40027
479.86707
485.20902
489.629
493.29106
496.3285
498.85016
500.94518
42.586378
42.702792
43.29587
45.078079
49.713036
58.890293
74.112815
95.319703
121.56433
149.66566
181.07058
220.71079
263.14461
302.03422
336.83456
366.89487
392.11352
413.04746
430.31689
444.48949
456.10459
465.63693
473.47794
479.94243
485.28262
489.70127
493.36234
496.3991
498.9203
501.01506
42.585692
42.701421
43.291141
45.062161
49.674317
58.824362
74.026205
95.234106
121.5026
149.64338
181.09568
220.78221
263.24153
302.14631
336.95358
367.01087
392.22289
413.14953
430.41204
444.57862
456.18884
465.71734
473.55535
480.01754
485.35595
489.77327
493.43337
496.46943
498.99018
501.08467
42.585008
42.700058
43.286445
45.046317
49.635701
58.758496
73.939375
95.14823
121.44056
149.62089
181.12069
220.85365
263.33853
302.25841
337.07254
367.12674
392.33211
413.25143
430.507
444.66757
456.27291
465.79755
473.63257
480.09245
485.42909
489.84508
493.5042
496.53958
499.05986
501.15409
42.584329
42.698705
43.281772
45.030569
49.597164
58.69269
73.852331
95.062078
121.37824
149.59819
181.14561
220.92513
263.4356
302.37053
337.19142
367.24248
392.44116
413.35313
430.60175
444.75629
456.35674
465.87753
473.70955
480.16711
485.50199
489.91665
493.57479
496.60947
499.1293
501.22326
42.583654
42.697362
43.277124
45.01488
49.558728
58.626963
73.765064
94.975649
121.31562
149.57528
181.17045
220.99663
263.53274
302.48268
337.31026
367.35813
392.55008
413.4547
430.69636
444.84486
456.44042
465.95736
473.78638
480.24162
485.57473
489.98805
493.64522
496.67921
499.19858
501.29228
42.582981
42.696028
43.2725
44.999267
49.520377
58.561322
73.677577
94.888948
121.25268
149.55214
181.1952
221.06815
263.62997
302.59487
337.42904
367.47367
392.65886
413.55608
430.79076
444.93321
456.52387
466.03695
473.86297
480.31589
485.64722
490.05922
493.7154
496.74869
499.26761
501.36105
42.582312
42.694704
43.267901
44.983746
49.482121
58.495751
73.589869
94.801976
121.18943
149.52879
181.21989
221.13971
263.72729
302.70709
337.54779
367.58912
392.76751
413.65731
430.885
445.0214
456.60715
466.11636
473.93938
480.38998
485.71954
490.13019
493.7854
496.818
499.33646
501.42963
42.581645
42.69339
43.263326
44.968285
49.443968
58.430262
73.501938
94.714734
121.12588
149.50522
181.2445
221.21129
263.82468
302.81935
337.6665
367.70447
392.87603
413.75838
430.97905
445.10938
456.69021
466.19556
474.01556
480.46384
485.79162
490.20094
493.85516
496.88707
499.40508
501.49799
42.580982
42.692087
43.258775
44.952901
49.405896
58.36488
73.413787
94.627228
121.06202
149.48143
181.26904
221.2829
263.92215
302.93167
337.78521
367.81977
392.98445
413.85935
431.07298
445.19724
456.77315
466.27462
474.09161
480.53756
485.86356
490.27154
493.92478
496.956
499.47355
501.5662
42.580322
42.690796
43.254253
44.937609
49.367931
58.29958
73.32541
94.539456
120.99783
149.45741
181.29353
221.35456
264.01969
303.04404
337.9039
367.93498
393.09276
413.96015
431.16674
445.2849
456.85588
466.35347
474.16743
480.61105
485.93527
490.34191
493.99417
497.0247
499.54179
501.63417
42.579664
42.689514
43.249768
44.922375
49.330049
58.234342
73.236852
94.451425
120.93331
149.43317
181.31795
221.42625
264.1173
303.15647
338.02258
368.05015
393.20098
414.06084
431.26036
445.37243
456.93846
466.43216
474.2431
480.68438
486.00682
490.41212
494.06339
497.09322
499.60986
501.70198
42.57901
42.688243
43.245307
44.907219
49.292268
58.169153
73.148195
94.363134
120.86848
149.4087
181.34231
221.49798
264.21501
303.26897
338.14125
368.16525
393.30909
414.1614
431.35383
445.45977
457.02086
466.51066
474.31856
480.7575
486.07815
490.48211
494.13239
497.16153
499.67771
501.76957
42.578358
42.686982
43.24087
44.892154
49.254589
58.103986
73.059433
94.274585
120.80332
149.38401
181.36661
221.56975
264.31281
303.38157
338.25996
368.28033
393.41714
414.26187
431.44719
445.54701
457.10313
466.58903
474.3939
480.8305
486.14935
490.55196
494.20126
497.2297
499.74542
501.83703
42.57771
42.68573
43.236458
44.877148
49.216994
58.038839
72.970571
94.185775
120.73782
149.35909
181.39085
221.64155
264.41072
303.49424
338.37869
368.39537
393.52512
414.36223
431.54041
445.63408
457.18523
466.66721
474.46904
480.90328
486.22034
490.6216
494.26991
497.29766
499.81292
501.90427
42.577064
42.68449
43.23207
44.862217
49.179515
57.973736
72.881616
94.096706
120.67198
149.33393
181.41502
221.71338
264.50872
303.60702
338.49746
368.5104
393.63304
414.4625
431.63352
445.72103
457.2672
466.74526
474.54403
480.97592
486.29119
490.69109
494.33841
497.36546
499.88027
501.97135
42.576421
42.683259
43.227707
44.84738
49.14212
57.908671
72.792559
94.007375
120.60581
149.30855
181.43913
221.78525
264.60682
303.71989
338.61626
368.62541
393.7409
414.56267
431.72651
445.80784
457.34901
466.82314
474.61885
481.04838
486.36184
490.76039
494.40672
497.43307
499.94742
502.03824
42.57578
42.682039
43.223367
44.832603
49.104835
57.843632
72.703407
93.917784
120.53931
149.28294
181.46318
221.85716
264.70504
303.83288
338.73512
368.74043
393.84873
414.6628
431.81943
445.89456
457.43073
466.90091
474.69356
481.12072
486.43237
490.82957
494.4749
497.50055
500.01445
502.10501
42.575143
42.680829
43.219052
44.8179
49.067654
57.77863
72.614167
93.827932
120.47244
149.25709