/*--------------------------------*- C++ -*----------------------------------*\
| =========                 |                                                 |
| \\      /  F ield         | OpenFOAM: The Open Source CFD Toolbox           |
|  \\    /   O peration     | Version:  v2012                                 |
|   \\  /    A nd           | Website:  www.openfoam.com                      |
|    \\/     M anipulation  |                                                 |
\*---------------------------------------------------------------------------*/
FoamFile
{
    version     2.0;
    format      ascii;
    class       volVectorField;
    location    "600";
    object      U;
}
// * * * * * * * * * * * * * * * * * * * * * * * * * * * * * * * * * * * * * //

dimensions      [0 1 -1 0 0 0 0];


internalField   nonuniform List<vector> 
24000
(
(28.738949 -0.0066335626 0)
(28.882017 -0.017525185 0)
(29.2385 -0.025052196 0)
(29.857035 -0.026615757 0)
(30.991591 -0.018953142 0)
(32.619917 -0.010043325 0)
(34.534106 -0.0021104743 0)
(36.490687 0.0027883096 0)
(38.256787 0.0050559158 0)
(39.514353 0.0064144698 0)
(40.201036 0.0073379889 0)
(40.08102 0.0084366206 0)
(38.688153 0.0085106221 0)
(36.198521 0.0085955701 0)
(32.878574 0.0070200558 0)
(29.034344 0.0060676912 0)
(25.084376 0.0050456225 0)
(21.290852 0.0038717165 0)
(17.801944 0.0027761245 0)
(14.698828 0.0019659444 0)
(12.001061 0.0013469208 0)
(9.6851324 0.00089118899 0)
(7.7111593 0.00056914512 0)
(6.0363032 0.00034972447 0)
(4.6199083 0.00020527952 0)
(3.4251655 0.00011351006 0)
(2.4194948 5.7324885e-05 0)
(1.5744487 2.4575999e-05 0)
(0.86542064 7.492347e-06 0)
(0.27127759 5.1291305e-07 0)
(28.72713 -0.0072770184 0)
(28.871029 -0.02016832 0)
(29.230171 -0.030363343 0)
(29.85099 -0.03010207 0)
(30.982904 -0.016169937 0)
(32.6076 -0.0026422873 0)
(34.517447 0.0086238782 0)
(36.468806 0.016317894 0)
(38.231272 0.020658003 0)
(39.486647 0.021652662 0)
(40.172079 0.019825672 0)
(40.051677 0.017489692 0)
(38.659487 0.015250174 0)
(36.169853 0.012838971 0)
(32.849253 0.010101402 0)
(29.005181 0.0075985066 0)
(25.055668 0.0055610775 0)
(21.262848 0.0039664392 0)
(17.775144 0.0027606243 0)
(14.673873 0.0018751426 0)
(11.978569 0.0012428583 0)
(9.6655792 0.00080192236 0)
(7.6947842 0.00050193461 0)
(6.0230898 0.00030298933 0)
(4.6096364 0.00017463545 0)
(3.4174942 9.4398727e-05 0)
(2.4140449 4.6212774e-05 0)
(1.5708645 1.8945996e-05 0)
(0.86340832 5.395652e-06 0)
(0.27062273 2.1428422e-07 0)
(28.716304 -0.0075971684 0)
(28.859318 -0.021118732 0)
(29.21547 -0.03160052 0)
(29.830017 -0.03042893 0)
(30.956495 -0.015104819 0)
(32.578003 -0.00059263178 0)
(34.485229 0.011849298 0)
(36.436 0.020356816 0)
(38.199687 0.024818545 0)
(39.457555 0.025213268 0)
(40.144827 0.022951091 0)
(40.025734 0.01946875 0)
(38.63522 0.016299721 0)
(36.146824 0.012931453 0)
(32.82727 0.0094730682 0)
(28.985562 0.0065084578 0)
(25.039443 0.0042639371 0)
(21.250464 0.0026683253 0)
(17.766588 0.0016050523 0)
(14.668675 0.00093559664 0)
(11.975913 0.00053370356 0)
(9.6646044 0.00029938403 0)
(7.6947761 0.00016535436 0)
(6.0235422 8.9599523e-05 0)
(4.6102363 4.7155869e-05 0)
(3.4180735 2.3688116e-05 0)
(2.4145278 1.092124e-05 0)
(1.5712239 4.2326832e-06 0)
(0.86363503 1.0845777e-06 0)
(0.27070673 1.052866e-07 0)
(28.704879 -0.0078304405 0)
(28.847315 -0.021789856 0)
(29.202008 -0.032379711 0)
(29.813369 -0.030629102 0)
(30.935742 -0.01451001 0)
(32.55379 0.00088270741 0)
(34.458086 0.014325222 0)
(36.407515 0.023255883 0)
(38.171081 0.027860945 0)
(39.429632 0.028160744 0)
(40.117251 0.025744223 0)
(39.998145 0.022078932 0)
(38.608005 0.018512755 0)
(36.119956 0.014793973 0)
(32.801039 0.011039251 0)
(28.961613 0.0078412622 0)
(25.018677 0.0054042282 0)
(21.23309 0.0036293619 0)
(17.752481 0.0023873225 0)
(14.657496 0.0015435911 0)
(11.967201 0.00098279438 0)
(9.6579149 0.00061451937 0)
(7.6897228 0.00037554578 0)
(6.0197982 0.00022262647 0)
(4.6075264 0.00012651982 0)
(3.4161699 6.7583157e-05 0)
(2.4132465 3.2747452e-05 0)
(1.5704215 1.3320868e-05 0)
(0.86320474 3.7598105e-06 0)
(0.27057345 2.0640676e-07 0)
(28.693292 -0.0079741593 0)
(28.835158 -0.022146789 0)
(29.188531 -0.032692785 0)
(29.796935 -0.030623713 0)
(30.915204 -0.014175928 0)
(32.529574 0.0017410616 0)
(34.431186 0.015806134 0)
(36.379261 0.024927365 0)
(38.142581 0.029638403 0)
(39.40161 0.029919277 0)
(40.089455 0.027484442 0)
(39.970123 0.023730873 0)
(38.579945 0.019944269 0)
(36.091908 0.015991151 0)
(32.773375 0.012012306 0)
(28.936022 0.0086091393 0)
(24.996153 0.0059902375 0)
(21.213935 0.0040621986 0)
(17.736663 0.0026981514 0)
(14.644736 0.0017619484 0)
(11.957045 0.0011336365 0)
(9.6499044 0.00071698751 0)
(7.6834619 0.00044363279 0)
(6.0149651 0.00026648991 0)
(4.6038644 0.0001535486 0)
(3.4134737 8.3249176e-05 0)
(2.4113507 4.0933517e-05 0)
(1.5691915 1.6825785e-05 0)
(0.86252994 4.7559226e-06 0)
(0.27036225 2.5296961e-07 0)
(28.681587 -0.0080583726 0)
(28.822969 -0.022338732 0)
(29.175256 -0.032819794 0)
(29.781008 -0.03058812 0)
(30.895291 -0.013987555 0)
(32.505963 0.0022765068 0)
(34.404989 0.016749115 0)
(36.351669 0.025987603 0)
(38.114632 0.030793067 0)
(39.373972 0.031094221 0)
(40.061892 0.028669541 0)
(39.942103 0.024881503 0)
(38.55153 0.020954156 0)
(36.063176 0.016842802 0)
(32.744746 0.012704672 0)
(28.909257 0.009151369 0)
(24.972352 0.0063991067 0)
(21.193506 0.0043596699 0)
(17.719662 0.0029074181 0)
(14.630943 0.0019046026 0)
(11.946041 0.0012279251 0)
(9.6412346 0.00077726375 0)
(7.6767153 0.00048073187 0)
(6.0097934 0.00028827904 0)
(4.5999792 0.00016559072 0)
(3.410639 8.9293055e-05 0)
(2.4093746 4.3599116e-05 0)
(1.5679187 1.7816709e-05 0)
(0.8618355 5.037052e-06 0)
(0.27014576 2.6406238e-07 0)
(28.669827 -0.0081028784 0)
(28.810781 -0.022432583 0)
(29.162099 -0.0328522 0)
(29.765318 -0.030553091 0)
(30.875655 -0.013892852 0)
(32.482619 0.0026036168 0)
(34.379114 0.017344413 0)
(36.324387 0.026664317 0)
(38.086945 0.031544938 0)
(39.346514 0.031871561 0)
(40.034425 0.029456843 0)
(39.914029 0.025655895 0)
(38.522808 0.021635522 0)
(36.033901 0.017420142 0)
(32.715373 0.013176333 0)
(28.881599 0.0095238191 0)
(24.947587 0.0066836625 0)
(21.172106 0.00457096 0)
(17.701729 0.0030603835 0)
(14.616288 0.0020127761 0)
(11.934255 0.0013026732 0)
(9.6318701 0.00082763228 0)
(7.6693651 0.00051369854 0)
(6.0041107 0.00030911512 0)
(4.5956753 0.00017817935 0)
(3.4074754 9.6499083e-05 0)
(2.4071549 4.7328546e-05 0)
(1.5664815 1.9392285e-05 0)
(0.86104809 5.4830756e-06 0)
(0.26989946 2.8262525e-07 0)
(28.658042 -0.0081230649 0)
(28.798612 -0.02247409 0)
(29.149037 -0.032844933 0)
(29.749793 -0.030535907 0)
(30.856211 -0.013864183 0)
(32.459469 0.0027953577 0)
(34.353469 0.017718386 0)
(36.297329 0.027101768 0)
(38.059449 0.032044687 0)
(39.319202 0.032391257 0)
(40.007055 0.029986072 0)
(39.885943 0.02617927 0)
(38.493905 0.022094786 0)
(36.004286 0.01780809 0)
(32.685525 0.01349161 0)
(28.853371 0.0097710099 0)
(24.92221 0.006870468 0)
(21.150099 0.0047075112 0)
(17.683228 0.0031572202 0)
(14.601124 0.0020795815 0)
(11.922033 0.0013475116 0)
(9.6221412 0.00085681131 0)
(7.6617188 0.00053198538 0)
(5.9981935 0.00032003446 0)
(4.5911909 0.00018428071 0)
(3.4041778 9.9519462e-05 0)
(2.4048406 4.8618833e-05 0)
(1.5649828 1.9861536e-05 0)
(0.86022703 5.6189489e-06 0)
(0.26964266 2.8516706e-07 0)
(28.646251 -0.0081291534 0)
(28.786466 -0.022489527 0)
(29.136043 -0.032824038 0)
(29.734378 -0.030539984 0)
(30.836893 -0.013883616 0)
(32.43644 0.0028956695 0)
(34.327969 0.017946966 0)
(36.270415 0.027383464 0)
(38.032075 0.032376485 0)
(39.291985 0.032740104 0)
(39.979741 0.030346321 0)
(39.85784 0.026536691 0)
(38.464864 0.022408276 0)
(35.974422 0.01807324 0)
(32.65534 0.013707923 0)
(28.82474 0.0099419257 0)
(24.8964 0.007001054 0)
(21.127661 0.0048045562 0)
(17.66432 0.003227661 0)
(14.585591 0.0021296612 0)
(11.909483 0.0013824636 0)
(9.6121308 0.00088077118 0)
(7.6538356 0.0005481084 0)
(5.9920821 0.00033065362 0)
(4.586552 0.0001910728 0)
(3.4007619 0.00010374797 0)
(2.4024406 5.1028948e-05 0)
(1.5634272 2.0969971e-05 0)
(0.85937416 5.9365607e-06 0)
(0.26937575 3.0793972e-07 0)
(28.634462 -0.0081277358 0)
(28.774342 -0.022494156 0)
(29.123101 -0.032802413 0)
(29.719042 -0.030564242 0)
(30.817663 -0.013938754 0)
(32.413495 0.0029324641 0)
(34.302568 0.01807766 0)
(36.2436 0.027560744 0)
(38.00479 0.032595941 0)
(39.264833 0.032976867 0)
(39.952466 0.030593814 0)
(39.829723 0.026782379 0)
(38.435725 0.022622921 0)
(35.944385 0.018254024 0)
(32.624921 0.013854969 0)
(28.795832 0.01005791 0)
(24.870293 0.0070892594 0)
(21.104927 0.0048694746 0)
(17.645132 0.0032740183 0)
(14.569804 0.0021618281 0)
(11.89671 0.0014040821 0)
(9.6019298 0.00089474695 0)
(7.6457937 0.00055670449 0)
(5.9858419 0.00033558304 0)
(4.5818117 0.00019362437 0)
(3.3972691 0.00010480116 0)
(2.3999853 5.1324513e-05 0)
(1.5618351 2.1015459e-05 0)
(0.85850109 5.9541002e-06 0)
(0.26910247 3.0515211e-07 0)
(28.62268 -0.0081228034 0)
(28.762236 -0.022496169 0)
(29.110196 -0.032785754 0)
(29.703763 -0.030606387 0)
(30.798499 -0.014020927 0)
(32.390611 0.0029244639 0)
(34.277238 0.018141006 0)
(36.216853 0.027667171 0)
(37.977566 0.032739142 0)
(39.237728 0.033137875 0)
(39.925216 0.030764611 0)
(39.801593 0.026952346 0)
(38.406514 0.022770704 0)
(35.914223 0.018378009 0)
(32.594336 0.013955908 0)
(28.76673 0.010137983 0)
(24.84398 0.0071505784 0)
(21.081987 0.0049150686 0)
(17.625748 0.0033070298 0)
(14.553839 0.0021850998 0)
(11.883781 0.0014200651 0)
(9.5915938 0.00090545689 0)
(7.6376387 0.00056371921 0)
(5.9795095 0.00034007551 0)
(4.5769985 0.00019641912 0)
(3.3937208 0.00010652417 0)
(2.3974899 5.229344e-05 0)
(1.5602165 2.1442053e-05 0)
(0.85761324 6.0709043e-06 0)
(0.2688245 3.09539e-07 0)
(28.610905 -0.008116569 0)
(28.750147 -0.02249949 0)
(29.09732 -0.032776202 0)
(29.68853 -0.030663843 0)
(30.779385 -0.014123864 0)
(32.367772 0.0028838716 0)
(34.251958 0.018156761 0)
(36.190155 0.027724188 0)
(37.950387 0.032829114 0)
(39.210656 0.033246 0)
(39.897985 0.030882048 0)
(39.773454 0.027069711 0)
(38.377248 0.022871892 0)
(35.883971 0.018462108 0)
(32.563635 0.014024067 0)
(28.737493 0.010192079 0)
(24.817521 0.0071919854 0)
(21.058902 0.0049457636 0)
(17.606227 0.0033291031 0)
(14.537747 0.0022004915 0)
(11.870738 0.0014304042 0)
(9.5811597 0.0009121045 0)
(7.6294009 0.00056774216 0)
(5.9731091 0.00034230839 0)
(4.5721311 0.00019749645 0)
(3.390131 0.000106851 0)
(2.3949645 5.2287948e-05 0)
(1.558578 2.1389014e-05 0)
(0.85671429 6.0601376e-06 0)
(0.26854301 3.0672542e-07 0)
(28.599137 -0.0081101674 0)
(28.738069 -0.022505716 0)
(29.084468 -0.032774095 0)
(29.673335 -0.030734335 0)
(30.760312 -0.014243245 0)
(32.344969 0.0028189865 0)
(34.226717 0.018138151 0)
(36.163495 0.027746013 0)
(37.923241 0.032881498 0)
(39.18361 0.033316985 0)
(39.870768 0.030962226 0)
(39.745307 0.027150554 0)
(38.347943 0.022940994 0)
(35.853652 0.018519066 0)
(32.532853 0.014070303 0)
(28.708163 0.010229294 0)
(24.790965 0.0072210746 0)
(21.03572 0.00496803 0)
(17.586614 0.0033458769 0)
(14.521572 0.0022129349 0)
(11.857621 0.0014395103 0)
(9.5706613 0.00091870646 0)
(7.621109 0.00057250763 0)
(5.9666644 0.00034571806 0)
(4.5672286 0.00019989505 0)
(3.3865145 0.00010854256 0)
(2.3924198 5.3363249e-05 0)
(1.5569267 2.1916054e-05 0)
(0.85580822 6.2068545e-06 0)
(0.26825926 3.1674238e-07 0)
(28.587375 -0.0081041518 0)
(28.726001 -0.022515447 0)
(29.071635 -0.032778956 0)
(29.658172 -0.03081566 0)
(30.741275 -0.014375568 0)
(32.322198 0.0027359608 0)
(34.201508 0.018094205 0)
(36.136863 0.027742217 0)
(37.896122 0.032906634 0)
(39.156584 0.033361121 0)
(39.843562 0.031015616 0)
(39.717153 0.027204976 0)
(38.318606 0.02298655 0)
(35.823285 0.018555701 0)
(32.502011 0.014099536 0)
(28.678767 0.010252694 0)
(24.764339 0.0072391386 0)
(21.012468 0.0049814785 0)
(17.566935 0.0033555133 0)
(14.505334 0.002219598 0)
(11.844448 0.0014438613 0)
(9.560114 0.00092133645 0)
(7.6127757 0.0005738954 0)
(5.9601857 0.00034626263 0)
(4.562299 0.00019993335 0)
(3.3828772 0.00010827485 0)
(2.3898601 5.3044118e-05 0)
(1.5552655 2.1721994e-05 0)
(0.85489661 6.1565024e-06 0)
(0.26797376 3.124923e-07 0)
(28.575617 -0.0080988323 0)
(28.713941 -0.022528958 0)
(29.05882 -0.032789945 0)
(29.643038 -0.030905266 0)
(30.72227 -0.01451788 0)
(32.299454 0.0026390591 0)
(34.176324 0.018031568 0)
(36.110254 0.027719715 0)
(37.869024 0.032911818 0)
(39.129574 0.033385629 0)
(39.816366 0.031049515 0)
(39.688994 0.027240318 0)
(38.289245 0.023015287 0)
(35.792881 0.018578236 0)
(32.471129 0.014117523 0)
(28.649327 0.010267528 0)
(24.737667 0.007250961 0)
(20.989172 0.0049906684 0)
(17.547213 0.0033624585 0)
(14.489056 0.002224711 0)
(11.831238 0.0014475305 0)
(9.549535 0.0009239172 0)
(7.6044154 0.00057569723 0)
(5.9536847 0.00034752369 0)
(4.5573517 0.00020081495 0)
(3.3792264 0.00010892595 0)
(2.3872905 5.3468296e-05 0)
(1.5535977 2.1921191e-05 0)
(0.85398133 6.2083491e-06 0)
(0.2676871 3.1361455e-07 0)
(28.563863 -0.0080943853 0)
(28.701886 -0.022546259 0)
(29.046021 -0.032806079 0)
(29.62793 -0.031001125 0)
(30.703293 -0.014667835 0)
(32.276735 0.002531894 0)
(34.151162 0.01795513 0)
(36.083665 0.02768354 0)
(37.841943 0.032902592 0)
(39.102578 0.03339576 0)
(39.789177 0.031068911 0)
(39.660832 0.027261361 0)
(38.259865 0.023031159 0)
(35.76245 0.018589593 0)
(32.440218 0.014126226 0)
(28.619859 0.010274895 0)
(24.710966 0.0072569002 0)
(20.965846 0.0049952871 0)
(17.527461 0.0033658777 0)
(14.47275 0.0022271141 0)
(11.818001 0.0014490839 0)
(9.5389306 0.00092479877 0)
(7.5960327 0.00057606474 0)
(5.9471646 0.00034754591 0)
(4.5523888 0.00020063767 0)
(3.3755634 0.0001086168 0)
(2.384712 5.3181876e-05 0)
(1.5519239 2.176168e-05 0)
(0.85306268 6.1673818e-06 0)
(0.26739935 3.1074685e-07 0)
(28.55211 -0.0080908491 0)
(28.689836 -0.022566997 0)
(29.033234 -0.032826476 0)
(29.612848 -0.031101631 0)
(30.684344 -0.014823505 0)
(32.25404 0.0024167556 0)
(34.12602 0.017868103 0)
(36.057093 0.027637093 0)
(37.814877 0.032882567 0)
(39.075595 0.033395223 0)
(39.761996 0.031077769 0)
(39.632667 0.027272162 0)
(38.230471 0.023038035 0)
(35.732 0.018593361 0)
(32.409291 0.014128983 0)
(28.590375 0.010277953 0)
(24.68425 0.0072600671 0)
(20.942506 0.0049985032 0)
(17.507696 0.0033690326 0)
(14.456431 0.0022300444 0)
(11.804753 0.0014517185 0)
(9.5283157 0.00092708203 0)
(7.5876409 0.0005780195 0)
(5.940637 0.00034917901 0)
(4.5474198 0.00020195234 0)
(3.3718957 0.00010967675 0)
(2.38213 5.3921051e-05 0)
(1.5502478 2.2142088e-05 0)
(0.8521427 6.2693052e-06 0)
(0.26711118 3.1632569e-07 0)
(28.540358 -0.0080880993 0)
(28.677789 -0.022590481 0)
(29.020458 -0.032850303 0)
(29.597787 -0.031206033 0)
(30.665421 -0.0149839 0)
(32.231367 0.0022954068 0)
(34.100896 0.017772995 0)
(36.030535 0.027582538 0)
(37.787826 0.032853902 0)
(39.048623 0.03338628 0)
(39.734823 0.031078232 0)
(39.6045 0.027274617 0)
(38.201066 0.023037224 0)
(35.701535 0.018590168 0)
(32.378353 0.014125509 0)
(28.560884 0.010275516 0)
(24.657528 0.0072584115 0)
(20.91916 0.0049974352 0)
(17.487924 0.0033683117 0)
(14.440103 0.002229492 0)
(11.791495 0.0014511731 0)
(9.5176914 0.00092648874 0)
(7.5792404 0.00057735874 0)
(5.9341018 0.00034848401 0)
(4.5424445 0.00020128428 0)
(3.368223 0.00010904329 0)
(2.3795444 5.343566e-05 0)
(1.5485693 2.1884495e-05 0)
(0.8512214 6.2029286e-06 0)
(0.26682259 3.133391e-07 0)
(28.528606 -0.008085908 0)
(28.665742 -0.022615975 0)
(29.007692 -0.032876933 0)
(29.582749 -0.031313853 0)
(30.646522 -0.015148422 0)
(32.208716 0.002168746 0)
(34.075788 0.017671284 0)
(36.003991 0.027521471 0)
(37.760786 0.032818499 0)
(39.021663 0.033371028 0)
(39.707656 0.031072599 0)
(39.576332 0.027271256 0)
(38.171652 0.023031399 0)
(35.671061 0.018582885 0)
(32.34741 0.014118899 0)
(28.531393 0.010270852 0)
(24.630806 0.007255374 0)
(20.895815 0.0049956946 0)
(17.468153 0.0033674865 0)
(14.423776 0.0022292214 0)
(11.778236 0.0014511928 0)
(9.5070658 0.00092665883 0)
(7.5708383 0.00057762055 0)
(5.927565 0.0003487957 0)
(4.5374678 0.00020160225 0)
(3.3645492 0.00010938017 0)
(2.3769579 5.3702043e-05 0)
(1.5468901 2.2017852e-05 0)
(0.85029973 6.2354795e-06 0)
(0.26653388 3.1297839e-07 0)
(28.516852 -0.0080840776 0)
(28.653697 -0.022643031 0)
(28.994937 -0.032905897 0)
(29.567732 -0.031424516 0)
(30.627648 -0.015316551 0)
(32.186086 0.0020375324 0)
(34.050696 0.017564272 0)
(35.977459 0.027455177 0)
(37.733758 0.032777529 0)
(38.994711 0.033350739 0)
(39.680496 0.031062426 0)
(39.548163 0.027263473 0)
(38.14223 0.023021638 0)
(35.640579 0.018572259 0)
(32.316466 0.014109417 0)
(28.501904 0.010263759 0)
(24.604089 0.0072502664 0)
(20.872474 0.004992126 0)
(17.448385 0.0033650311 0)
(14.407448 0.0022275154 0)
(11.764975 0.0014499103 0)
(9.4964365 0.00092564376 0)
(7.562432 0.00057676393 0)
(5.9210239 0.00034805996 0)
(4.5324871 0.00020097743 0)
(3.360872 0.00010882144 0)
(2.3743688 5.3290916e-05 0)
(1.5452092 2.1807461e-05 0)
(0.84937703 6.1820603e-06 0)
(0.26624483 3.1102607e-07 0)
(28.505097 -0.008082558 0)
(28.641652 -0.022671622 0)
(28.982193 -0.032936784 0)
(29.552737 -0.031537317 0)
(30.608798 -0.015487665 0)
(32.163478 0.0019029066 0)
(34.025618 0.017453479 0)
(35.950939 0.02738517 0)
(37.706741 0.032732681 0)
(38.967768 0.033326709 0)
(39.653342 0.03104852 0)
(39.519993 0.027252469 0)
(38.112801 0.023009205 0)
(35.610091 0.018559739 0)
(32.285524 0.014098856 0)
(28.472424 0.010256374 0)
(24.577382 0.0072455336 0)
(20.849145 0.0049894826 0)
(17.428628 0.0033639392 0)
(14.39113 0.0022274338 0)
(11.751721 0.0014504128 0)
(9.4858128 0.00092643754 0)
(7.55403 0.00057769643 0)
(5.9144862 0.00034900694 0)
(4.5275091 0.00020184098 0)
(3.3571968 0.00010959756 0)
(2.3717811 5.3867352e-05 0)
(1.5435291 2.2110617e-05 0)
(0.84845478 6.2597774e-06 0)
(0.26595591 3.1312086e-07 0)
(28.49334 -0.0080814103 0)
(28.629608 -0.022701852 0)
(28.969458 -0.032969273 0)
(29.537764 -0.031651207 0)
(30.589972 -0.015660852 0)
(32.140891 0.0017653905 0)
(34.000555 0.017339621 0)
(35.924429 0.027312418 0)
(37.679734 0.032685226 0)
(38.940835 0.033299764 0)
(39.626194 0.03103104 0)
(39.491824 0.027238077 0)
(38.083368 0.022993359 0)
(35.579601 0.018543942 0)
(32.254587 0.01408518 0)
(28.442954 0.010246018 0)
(24.550688 0.0072378952 0)
(20.825827 0.0049839941 0)
(17.40888 0.0033600353 0)
(14.374818 0.0022246623 0)
(11.738471 0.0014483523 0)
(9.4751913 0.0009248467 0)
(7.545629 0.00057640051 0)
(5.9079488 0.0003479318 0)
(4.5225309 0.00020096467 0)
(3.3535213 0.00010885814 0)
(2.3691931 5.3337018e-05 0)
(1.5418488 2.1839405e-05 0)
(0.84753242 6.1912766e-06 0)
(0.26566696 3.1147233e-07 0)
(28.48158 -0.0080806957 0)
(28.617563 -0.02273359 0)
(28.956733 -0.03300294 0)
(29.522811 -0.0317658 0)
(30.57117 -0.015835675 0)
(32.118325 0.0016256661 0)
(33.975507 0.017223364 0)
(35.897931 0.02723749 0)
(37.652736 0.03263557 0)
(38.91391 0.033270709 0)
(39.599052 0.031011352 0)
(39.463655 0.02722166 0)
(38.053932 0.022975653 0)
(35.54911 0.018526678 0)
(32.223658 0.014070499 0)
(28.413498 0.010235148 0)
(24.52401 0.0072302084 0)
(20.802527 0.0049788743 0)
(17.389147 0.0033568139 0)
(14.358519 0.0022227609 0)
(11.725232 0.001447314 0)
(9.4645778 0.00092435053 0)
(7.5372341 0.00057625358 0)
(5.901416 0.00034799964 0)
(4.5175563 0.00020114653 0)
(3.3498484 0.00010912316 0)
(2.3666069 5.3569232e-05 0)
(1.5401697 2.1961293e-05 0)
(0.84661068 6.2211862e-06 0)
(0.2653782 3.1092988e-07 0)
(28.469818 -0.008080355 0)
(28.605518 -0.022766411 0)
(28.944015 -0.033037519 0)
(29.507878 -0.031881086 0)
(30.552391 -0.016011986 0)
(32.09578 0.0014838754 0)
(33.950472 0.017105131 0)
(35.871443 0.027160804 0)
(37.625749 0.032584037 0)
(38.886994 0.033240025 0)
(39.571917 0.030989904 0)
(39.435486 0.027203504 0)
(38.024492 0.022956161 0)
(35.518619 0.018507635 0)
(32.192738 0.014054055 0)
(28.384058 0.010222566 0)
(24.49735 0.0072209181 0)
(20.779243 0.004972247 0)
(17.36943 0.0033521584 0)
(14.342231 0.0022195222 0)
(11.711999 0.0014450244 0)
(9.4539681 0.00092269865 0)
(7.528841 0.00057501107 0)
(5.8948837 0.00034704324 0)
(4.5125814 0.0002004095 0)
(3.3461749 0.00010852055 0)
(2.36402 5.3147874e-05 0)
(1.53849 2.1751068e-05 0)
(0.8456886 6.1680743e-06 0)
(0.26508933 3.0951398e-07 0)
(28.458052 -0.0080802148 0)
(28.593471 -0.02279978 0)
(28.931306 -0.033072841 0)
(29.492965 -0.031997413 0)
(30.533636 -0.016189919 0)
(32.073256 0.0013401596 0)
(33.92545 0.016985059 0)
(35.844966 0.027082616 0)
(37.598771 0.032531055 0)
(38.860087 0.033208064 0)
(39.544788 0.03096713 0)
(39.407319 0.027184243 0)
(37.99505 0.022935944 0)
(35.48813 0.018488352 0)
(32.16183 0.014037852 0)
(28.354638 0.01021069 0)
(24.470713 0.0072128069 0)
(20.755984 0.0049671837 0)
(17.349734 0.0033493636 0)
(14.325962 0.0022182604 0)
(11.698783 0.0014447543 0)
(9.4433717 0.00092298677 0)
(7.5204587 0.00057562363 0)
(5.88836 0.00034778775 0)
(4.5076132 0.00020114786 0)
(3.3425064 0.00010922276 0)
(2.3614368 5.3683717e-05 0)
(1.5368127 2.2037467e-05 0)
(0.84476781 6.2397381e-06 0)
(0.26480085 3.1011384e-07 0)
(28.446283 -0.0080801126 0)
(28.581423 -0.022833354 0)
(28.918606 -0.033108728 0)
(29.478072 -0.032114917 0)
(30.514904 -0.016369653 0)
(32.050753 0.0011944976 0)
(33.900442 0.016863325 0)
(35.818498 0.02700323 0)
(37.571803 0.032476597 0)
(38.833188 0.03317455 0)
(39.517666 0.030942598 0)
(39.379152 0.027163206 0)
(37.965606 0.022913919 0)
(35.457643 0.01846721 0)
(32.130934 0.014019681 0)
(28.325236 0.010196705 0)
(24.444096 0.0072023999 0)
(20.732744 0.0049596839 0)
(17.330057 0.0033440182 0)
(14.309707 0.0022144627 0)
(11.685576 0.0014419808 0)
(9.432783 0.00092091288 0)
(7.5120819 0.0005740142 0)
(5.8818403 0.00034651683 0)
(4.5026479 0.0002001577 0)
(3.33884 0.0001084206 0)
(2.3588549 5.3121321e-05 0)
(1.5351363 2.1752564e-05 0)
(0.84384752 6.1672401e-06 0)
(0.26451254 3.087452e-07 0)
(28.43451 -0.0080800212 0)
(28.569373 -0.022867237 0)
(28.905915 -0.033145164 0)
(29.4632 -0.032233103 0)
(30.496196 -0.016550731 0)
(32.028271 0.0010470348 0)
(33.875448 0.016740119 0)
(35.792041 0.026922919 0)
(37.544843 0.032420992 0)
(38.806297 0.033139936 0)
(39.490548 0.030917005 0)
(39.350986 0.027141365 0)
(37.936161 0.022891377 0)
(35.427159 0.018445862 0)
(32.10005 0.014001656 0)
(28.295854 0.010183215 0)
(24.417502 0.0071927757 0)
(20.709527 0.0049531999 0)
(17.3104 0.003339882 0)
(14.29347 0.0022119616 0)
(11.672385 0.0014405515 0)
(9.422206 0.00092017017 0)
(7.5037146 0.00057372291 0)
(5.875328 0.00034650227 0)
(4.4976883 0.00020029719 0)
(3.3351779 0.00010866961 0)
(2.3562761 5.3348764e-05 0)
(1.5334618 2.1873343e-05 0)
(0.84292831 6.1966715e-06 0)
(0.26422456 3.0796908e-07 0)
(28.422734 -0.0080800386 0)
(28.557323 -0.022901747 0)
(28.893233 -0.033181993 0)
(29.448349 -0.032351441 0)
(30.477512 -0.016732771 0)
(32.005811 0.00089831752 0)
(33.850467 0.016615757 0)
(35.765593 0.026842059 0)
(37.517893 0.032364788 0)
(38.779415 0.033104731 0)
(39.463437 0.030890795 0)
(39.32282 0.02711893 0)
(37.906713 0.022868161 0)
(35.396676 0.018423731 0)
(32.069179 0.013982733 0)
(28.266491 0.010168696 0)
(24.39093 0.007181999 0)
(20.686331 0.00494546 0)
(17.290761 0.0033344495 0)
(14.277247 0.0022081939 0)
(11.659203 0.0014378964 0)
(9.411635 0.00091827783 0)
(7.4953507 0.00057232119 0)
(5.8688176 0.0003454409 0)
(4.4927295 0.00019949789 0)
(3.3315159 0.0001080304 0)
(2.3536973 5.2905922e-05 0)
(1.5317872 2.1652387e-05 0)
(0.84200897 6.1408827e-06 0)
(0.26393654 3.0720658e-07 0)
(28.410954 -0.0080802771 0)
(28.545271 -0.022937043 0)
(28.880561 -0.033219173 0)
(29.433519 -0.032469332 0)
(30.458851 -0.016915103 0)
(31.983372 0.00074842938 0)
(33.825499 0.01649033 0)
(35.739154 0.026760766 0)
(37.490952 0.032308101 0)
(38.75254 0.033069401 0)
(39.436331 0.030864654 0)
(39.294654 0.027096747 0)
(37.877263 0.022845329 0)
(35.366197 0.018402238 0)
(32.038322 0.013964789 0)
(28.237151 0.010155463 0)
(24.364384 0.0071728154 0)
(20.663163 0.0049395561 0)
(17.271148 0.0033310433 0)
(14.261046 0.0022064979 0)
(11.64604 0.0014373084 0)
(9.4010796 0.00091833985 0)
(7.4869994 0.00057276631 0)
(5.8623172 0.00034606144 0)
(4.4877784 0.00020014694 0)
(3.3278598 0.00010867173 0)
(2.3511225 5.3402346e-05 0)
(1.5301153 2.1916705e-05 0)
(0.8410911 6.2048486e-06 0)
(0.26364897 3.0614068e-07 0)
(28.39917 -0.0080807499 0)
(28.533218 -0.022972994 0)
(28.867896 -0.033256699 0)
(29.418709 -0.032586914 0)
(30.440215 -0.01709736 0)
(31.960954 0.00059783939 0)
(33.800544 0.016363871 0)
(35.712725 0.026678973 0)
(37.464019 0.032250801 0)
(38.725672 0.033033669 0)
(39.409231 0.030838 0)
(39.26649 0.027073809 0)
(37.847813 0.022821483 0)
(35.335722 0.018379469 0)
(32.007479 0.013945259 0)
(28.207832 0.010140369 0)
(24.337862 0.0071615168 0)
(20.640018 0.0049313446 0)
(17.251556 0.0033251733 0)
(14.244861 0.0022023303 0)
(11.632889 0.0014342831 0)
(9.3905333 0.00091611502 0)
(7.4786549 0.00057107941 0)
(5.8558216 0.00034476339 0)
(4.4828309 0.00019915405 0)
(3.3242062 0.00010787833 0)
(2.3485495 5.2851328e-05 0)
(1.5284445 2.1638195e-05 0)
(0.84017387 6.1345882e-06 0)
(0.2633616 3.0578626e-07 0)
(28.387381 -0.008081347 0)
(28.521162 -0.02300923 0)
(28.855239 -0.0332945 0)
(29.403918 -0.032704552 0)
(30.421602 -0.017279717 0)
(31.938558 0.00044656983 0)
(33.775601 0.016236276 0)
(35.686306 0.026596751 0)
(37.437094 0.032192973 0)
(38.698813 0.032997537 0)
(39.382135 0.03081099 0)
(39.238325 0.027050526 0)
(37.81836 0.022797517 0)
(35.30525 0.01835688 0)
(31.976651 0.013926243 0)
(28.178536 0.010126132 0)
(24.311365 0.0071513751 0)
(20.616898 0.0049245122 0)
(17.231987 0.0033208064 0)
(14.228697 0.0021996852 0)
(11.619755 0.0014327794 0)
(9.3800009 0.00091533994 0)
(7.4703214 0.00057078699 0)
(5.8493349 0.00034476835 0)
(4.4778901 0.00019931176 0)
(3.3205576 0.000108141 0)
(2.3459801 5.3089222e-05 0)
(1.5267761 2.1764475e-05 0)
(0.83925792 6.1650639e-06 0)
(0.26307463 3.0464771e-07 0)
(28.375589 -0.0080818957 0)
(28.509104 -0.023045401 0)
(28.842591 -0.033332678 0)
(29.389148 -0.03282251 0)
(30.403013 -0.017462023 0)
(31.916183 0.00029452659 0)
(33.750672 0.016107511 0)
(35.659895 0.026513957 0)
(37.410178 0.032134172 0)
(38.67196 0.032960671 0)
(39.355045 0.030783466 0)
(39.21016 0.027026654 0)
(37.788906 0.022772932 0)
(35.274781 0.018333569 0)
(31.945835 0.013906377 0)
(28.14926 0.010110897 0)
(24.284892 0.0071401116 0)
(20.593802 0.0049164751 0)
(17.212438 0.0033151723 0)
(14.212548 0.0021957728 0)
(11.606632 0.0014300297 0)
(9.3694751 0.00091338984 0)
(7.4619919 0.00056936093 0)
(5.8428502 0.00034371209 0)
(4.4729503 0.00019852859 0)
(3.3169093 0.00010752558 0)
(2.3434105 5.2668655e-05 0)
(1.5251074 2.1555381e-05 0)
(0.83834181 6.1129977e-06 0)
(0.26278761 3.0466239e-07 0)
(28.363792 -0.0080823021 0)
(28.497043 -0.023081502 0)
(28.829951 -0.033371167 0)
(29.374398 -0.032940837 0)
(30.384448 -0.017644758 0)
(31.893831 0.00014192327 0)
(33.725755 0.015977658 0)
(35.633494 0.026430625 0)
(37.383271 0.032074698 0)
(38.645115 0.032923421 0)
(39.327959 0.03075586 0)
(39.181995 0.027003045 0)
(37.759451 0.022748973 0)
(35.244317 0.018311155 0)
(31.915036 0.01388772 0)
(28.120009 0.010097192 0)
(24.258446 0.0071306819 0)
(20.570734 0.0049105085 0)
(17.192917 0.0033117853 0)
(14.196424 0.0021941207 0)
(11.593529 0.0014295045 0)
(9.3589669 0.00091351621 0)
(7.4536768 0.00056987043 0)
(5.836377 0.00034439459 0)
(4.4680194 0.00019923042 0)
(3.3132677 0.00010821329 0)
(2.3408459 5.3201988e-05 0)
(1.523442 2.1840431e-05 0)
(0.83742746 6.1804661e-06 0)
(0.26250113 3.0209611e-07 0)
(28.351991 -0.0080826226 0)
(28.484981 -0.023117906 0)
(28.817321 -0.033409998 0)
(29.359669 -0.033058912 0)
(30.365907 -0.017827115 0)
(31.8715 -1.1323814e-05 0)
(33.700852 0.015846724 0)
(35.607102 0.026346878 0)
(37.356372 0.032014763 0)
(38.618277 0.032885806 0)
(39.300879 0.030727725 0)
(39.153831 0.026978836 0)
(37.729994 0.022724127 0)
(35.213856 0.01828748 0)
(31.884251 0.01386739 0)
(28.090779 0.010081409 0)
(24.232025 0.0071187965 0)
(20.547689 0.0049018183 0)
(17.173416 0.003305517 0)
(14.180316 0.0021896238 0)
(11.58044 0.0014262059 0)
(9.3484686 0.00091107251 0)
(7.4453692 0.00056800286 0)
(5.8299096 0.00034294916 0)
(4.4630929 0.0001981244 0)
(3.3096293 0.00010733046 0)
(2.3382834 5.2590183e-05 0)
(1.521778 2.153222e-05 0)
(0.83651394 6.1038172e-06 0)
(0.26221491 3.0281369e-07 0)
(28.340185 -0.0080829959 0)
(28.472917 -0.023154983 0)
(28.804699 -0.033449253 0)
(29.344961 -0.033176356 0)
(30.347391 -0.018009708 0)
(31.849193 -0.00016475487 0)
(33.675961 0.015714986 0)
(35.580719 0.02626282 0)
(37.329482 0.031954337 0)
(38.591446 0.032848168 0)
(39.273803 0.030699855 0)
(39.125667 0.02695501 0)
(37.700536 0.022699783 0)
(35.183399 0.018264572 0)
(31.85348 0.013848106 0)
(28.061572 0.01006695 0)
(24.205629 0.0071084699 0)
(20.524671 0.0048948219 0)
(17.153939 0.0033010401 0)
(14.164229 0.002186932 0)
(11.567368 0.0014246915 0)
(9.3379851 0.00091030913 0)
(7.4370738 0.00056773338 0)
(5.823452 0.00034298435 0)
(4.4581741 0.0001983161 0)
(3.3059968 0.00010763372 0)
(2.3357252 5.2863483e-05 0)
(1.5201168 2.1678147e-05 0)
(0.83560195 6.1398123e-06 0)
(0.26192918 3.0147334e-07 0)
(28.328374 -0.00808354 0)
(28.46085 -0.023192825 0)
(28.792087 -0.03348888 0)
(29.330274 -0.033293067 0)
(30.328899 -0.018193034 0)
(31.826906 -0.00031831639 0)
(33.651084 0.015582471 0)
(35.554346 0.026178591 0)
(37.302599 0.031893617 0)
(38.564622 0.032810605 0)
(39.246732 0.030672221 0)
(39.097502 0.026931246 0)
(37.671075 0.022675215 0)
(35.152946 0.018241304 0)
(31.822724 0.013828283 0)
(28.032386 0.010051743 0)
(24.179256 0.0070971778 0)
(20.501674 0.0048866492 0)
(17.134481 0.0032952349 0)
(14.148156 0.0021828737 0)
(11.554306 0.0014218059 0)
(9.3275069 0.00090822294 0)
(7.4287811 0.00056616281 0)
(5.8169954 0.00034178278 0)
(4.4532553 0.00019740298 0)
(3.3023638 0.00010689362 0)
(2.3331664 5.23483e-05 0)
(1.5184551 2.142214e-05 0)
(0.83468964 6.0767777e-06 0)
(0.26164334 3.0224408e-07 0)
(28.316558 -0.0080842814 0)
(28.448781 -0.023231228 0)
(28.779481 -0.033528906 0)
(29.315607 -0.033409366 0)
(30.310433 -0.018375673 0)