/*--------------------------------*- C++ -*----------------------------------*\
| =========                 |                                                 |
| \\      /  F ield         | OpenFOAM: The Open Source CFD Toolbox           |
|  \\    /   O peration     | Version:  v2012                                 |
|   \\  /    A nd           | Website:  www.openfoam.com                      |
|    \\/     M anipulation  |                                                 |
\*---------------------------------------------------------------------------*/
FoamFile
{
    version     2.0;
    format      ascii;
    class       volScalarField;
    location    "250";
    object      alphat;
}
// * * * * * * * * * * * * * * * * * * * * * * * * * * * * * * * * * * * * * //

dimensions      [1 -1 -1 0 0 0 0];


internalField   nonuniform List<scalar> 
24000
(
0.00097309858
0.00025541973
0.00034800075
0.00036977678
0.00019139414
9.8178944e-05
4.9608644e-05
2.59151e-05
1.8618545e-05
1.3958137e-05
9.3441691e-06
6.2895633e-06
2.933021e-06
1.9649892e-06
1.2144285e-06
7.7277962e-07
4.7619293e-07
2.7381375e-07
1.2720552e-07
4.9169675e-08
1.6561297e-08
4.9664437e-09
1.3408841e-09
3.2399305e-10
6.8263649e-11
1.1990331e-11
1.7419844e-12
3.6480396e-13
2.7619156e-13
2.9231798e-13
0.00097342229
0.00025253589
0.00033559619
0.00034563235
0.00018149789
9.2029608e-05
4.7427163e-05
2.547282e-05
1.8409468e-05
1.388084e-05
9.3213421e-06
6.3647667e-06
2.956839e-06
1.9799644e-06
1.2252615e-06
7.8310573e-07
4.8462403e-07
2.7987163e-07
1.2991751e-07
5.0251865e-08
1.6925842e-08
5.0759003e-09
1.3707865e-09
3.3135597e-10
6.9866538e-11
1.2307824e-11
1.8243947e-12
4.1808337e-13
3.3188319e-13
3.5120068e-13
0.00097370581
0.00025360116
0.0003430657
0.00036409316
0.00019097608
9.6249157e-05
4.9229964e-05
2.5998171e-05
1.8531149e-05
1.389436e-05
9.2959986e-06
6.3956722e-06
2.9685346e-06
1.9931728e-06
1.2300954e-06
7.8621444e-07
4.8682321e-07
2.8147422e-07
1.3214681e-07
5.132378e-08
1.7330457e-08
5.2029474e-09
1.4054372e-09
3.3969242e-10
7.1598018e-11
1.2591567e-11
1.843939e-12
4.0038416e-13
3.0909275e-13
3.2701907e-13
0.00097398302
0.00025402032
0.00034594203
0.00037066457
0.00019392182
9.730959e-05
4.9529439e-05
2.6000368e-05
1.8487516e-05
1.3863063e-05
9.2658742e-06
6.4017863e-06
2.9694681e-06
1.9990768e-06
1.2323109e-06
7.8692535e-07
4.8678006e-07
2.8112989e-07
1.3150558e-07
5.0964949e-08
1.7181588e-08
5.1532285e-09
1.391311e-09
3.3620137e-10
7.0858938e-11
1.2466851e-11
1.8324197e-12
4.0473132e-13
3.1533293e-13
3.3367349e-13
0.00097425491
0.00025478272
0.0003490742
0.00037656709
0.00019619798
9.800121e-05
4.9659573e-05
2.6003197e-05
1.8473591e-05
1.3857346e-05
9.2607314e-06
6.4017971e-06
2.9699567e-06
1.9993411e-06
1.232105e-06
7.8683069e-07
4.8677188e-07
2.8117836e-07
1.3166156e-07
5.1043743e-08
1.7211521e-08
5.1624959e-09
1.3937815e-09
3.367814e-10
7.0976685e-11
1.2485718e-11
1.83361e-12
4.0346143e-13
3.1371394e-13
3.3194953e-13
0.0009745216
0.00025544812
0.00035128189
0.00038021257
0.00019743781
9.8343862e-05
4.9727599e-05
2.6003111e-05
1.8460984e-05
1.3850567e-05
9.2547516e-06
6.3990032e-06
2.9690582e-06
1.9994314e-06
1.231951e-06
7.8662565e-07
4.8658365e-07
2.8102859e-07
1.3153763e-07
5.098253e-08
1.7187446e-08
5.1545988e-09
1.3915427e-09
3.3622613e-10
7.085817e-11
1.2465005e-11
1.830922e-12
4.0324553e-13
3.1370605e-13
3.3194716e-13
0.00097478311
0.00025601564
0.00035288912
0.0003826637
0.00019825826
9.8594374e-05
4.9791732e-05
2.6007783e-05
1.8451213e-05
1.3846043e-05
9.2512835e-06
6.3952313e-06
2.9677849e-06
1.9988325e-06
1.2315928e-06
7.863346e-07
4.8636502e-07
2.8088077e-07
1.3144215e-07
5.0939478e-08
1.717139e-08
5.1494652e-09
1.3901008e-09
3.3586882e-10
7.0781542e-11
1.2451324e-11
1.8288632e-12
4.0276276e-13
3.1332088e-13
3.3154067e-13
0.00097503941
0.00025647524
0.00035402752
0.00038435129
0.00019886064
9.8808155e-05
4.9856209e-05
2.6013554e-05
1.8442163e-05
1.3842285e-05
9.2484164e-06
6.3911551e-06
2.9663738e-06
1.9981236e-06
1.2312178e-06
7.860301e-07
4.8613146e-07
2.8071812e-07
1.3132846e-07
5.0887334e-08
1.715179e-08
5.1431889e-09
1.3883417e-09
3.3543456e-10
7.0688868e-11
1.2434935e-11
1.8265061e-12
4.0230911e-13
3.1299694e-13
3.3119932e-13
0.00097529048
0.00025690149
0.0003548478
0.00038560404
0.00019936195
9.9010085e-05
4.9924464e-05
2.6020257e-05
1.8433767e-05
1.3839136e-05
9.2460162e-06
6.3870735e-06
2.9649603e-06
1.9973596e-06
1.2308316e-06
7.8572068e-07
4.8589518e-07
2.8055418e-07
1.312142e-07
5.0835162e-08
1.7132252e-08
5.1369511e-09
1.3865968e-09
3.3500446e-10
7.0597177e-11
1.2418726e-11
1.8241658e-12
4.0184714e-13
3.1266099e-13
3.308447e-13
0.00097553706
0.00025724897
0.0003554527
0.00038659974
0.00019981175
9.9206936e-05
4.9993943e-05
2.6027502e-05
1.8425808e-05
1.3836332e-05
9.2438559e-06
6.3831002e-06
2.9635923e-06
1.9966109e-06
1.2304575e-06
7.8541829e-07
4.8566255e-07
2.8039182e-07
1.3109984e-07
5.0782892e-08
1.7112689e-08
5.1307115e-09
1.3848537e-09
3.3457535e-10
7.0505813e-11
1.2402598e-11
1.8218454e-12
4.0139524e-13
3.1233482e-13
3.3050025e-13
0.00097577974
0.00025743013
0.00035591529
0.00038743838
0.00020023202
9.9400891e-05
5.0063458e-05
2.6035155e-05
1.8418221e-05
1.3833753e-05
9.2418469e-06
6.3792704e-06
2.9622885e-06
1.9958965e-06
1.2301012e-06
7.8512673e-07
4.8543642e-07
2.8023316e-07
1.3098723e-07
5.0731379e-08
1.7093412e-08
5.1245654e-09
1.3831374e-09
3.3415297e-10
7.041591e-11
1.2386734e-11
1.8195647e-12
4.0095229e-13
3.1201552e-13
3.301629e-13
0.00097601849
0.00025761923
0.00035628277
0.00038817544
0.00020063239
9.9592521e-05
5.0132908e-05
2.6043146e-05
1.8410965e-05
1.3831325e-05
9.2399267e-06
6.3755876e-06
2.9610528e-06
1.9952257e-06
1.2297661e-06
7.8484809e-07
4.8521814e-07
2.8007898e-07
1.308768e-07
5.0680782e-08
1.7074469e-08
5.1185264e-09
1.3814515e-09
3.3373821e-10
7.0327657e-11
1.2371167e-11
1.8173295e-12
4.0052027e-13
3.1170493e-13
3.2983468e-13
0.00097625332
0.00025780967
0.00035658386
0.00038884258
0.00020101786
9.9782029e-05
5.0202268e-05
2.6051348e-05
1.8404024e-05
1.3829006e-05
9.2380598e-06
6.3720431e-06
2.9598834e-06
1.9946012e-06
1.2294533e-06
7.8458321e-07
4.8500831e-07
2.7992973e-07
1.3076892e-07
5.0631259e-08
1.7055912e-08
5.1126086e-09
1.379799e-09
3.3333161e-10
7.0241129e-11
1.2355903e-11
1.8151391e-12
4.0009834e-13
3.1140224e-13
3.2951474e-13
0.00097648427
0.00025798108
0.00035683694
0.00038945923
0.00020139167
9.9969556e-05
5.027158e-05
2.6059731e-05
1.8397411e-05
1.3826772e-05
9.2362218e-06
6.3686228e-06
2.9587759e-06
1.9940223e-06
1.2291629e-06
7.8433231e-07
4.8480713e-07
2.7978546e-07
1.3066357e-07
5.0582786e-08
1.7037733e-08
5.1068098e-09
1.37818e-09
3.329333e-10
7.0156384e-11
1.2340959e-11
1.8129964e-12
3.9968711e-13
3.1110785e-13
3.2920351e-13
0.00097671141
0.00025813831
0.00035705442
0.00039003773
0.00020175598
0.00010015518
5.034088e-05
2.6068268e-05
1.8391147e-05
1.382461e-05
9.2343982e-06
6.3653132e-06
2.9577257e-06
1.9934866e-06
1.2288945e-06
7.8409532e-07
4.8461471e-07
2.7964639e-07
1.3056093e-07
5.0535441e-08
1.7019956e-08
5.1011354e-09
1.3765949e-09
3.3254323e-10
7.0073371e-11
1.2326318e-11
1.8108982e-12
3.9928589e-13
3.1082127e-13
3.2890045e-13
0.00097693482
0.00025828483
0.00035724431
0.00039058569
0.00020211227
0.00010033903
5.0410249e-05
2.6076929e-05
1.8385246e-05
1.382251e-05
9.2325739e-06
6.3621008e-06
2.9567284e-06
1.9929916e-06
1.2286476e-06
7.8387204e-07
4.8443093e-07
2.7951246e-07
1.3046097e-07
5.0489211e-08
1.7002575e-08
5.0955841e-09
1.3750439e-09
3.3216151e-10
6.9992133e-11
1.2311991e-11
1.8088463e-12
3.9889457e-13
3.1054217e-13
3.2860524e-13
0.00097715459
0.00025842301
0.00035741226
0.00039110875
0.00020246169
0.00010052143
5.0479817e-05
2.6085714e-05
1.8379742e-05
1.3820458e-05
9.230728e-06
6.3589723e-06
2.9557791e-06
1.9925353e-06
1.2284217e-06
7.8366213e-07
4.8425556e-07
2.7938355e-07
1.3036368e-07
5.0444096e-08
1.6985588e-08
5.0901551e-09
1.3735262e-09
3.3178785e-10
6.9912583e-11
1.2297957e-11
1.8068356e-12
3.9851086e-13
3.1026837e-13
3.2831556e-13
0.00097737082
0.00025855442
0.00035756241
0.00039161183
0.0002028052
0.00010070261
5.0549625e-05
2.6094597e-05
1.8374673e-05
1.381845e-05
9.2288434e-06
6.3559166e-06
2.9548735e-06
1.9921156e-06
1.2282161e-06
7.8346508e-07
4.8408815e-07
2.7925924e-07
1.3026874e-07
5.0399943e-08
1.6968943e-08
5.0848315e-09
1.3720379e-09
3.314214e-10
6.9834578e-11
1.2284198e-11
1.8048641e-12
3.9813417e-13
3.0999928e-13
3.2803083e-13
0.00097758362
0.0002586802
0.00035769782
0.00039209884
0.00020314369
0.0001008828
5.0619686e-05
2.6103601e-05
1.8369942e-05
1.3816531e-05
9.226928e-06
6.3529245e-06
2.9540079e-06
1.9917298e-06
1.2280301e-06
7.8328054e-07
4.8392855e-07
2.791395e-07
1.3017615e-07
5.0356746e-08
1.6952631e-08
5.0796098e-09
1.370577e-09
3.3106156e-10
6.9757948e-11
1.2270676e-11
1.8029256e-12
3.9776319e-13
3.0973399e-13
3.2775005e-13
0.00097779308
0.0002588013
0.00035782092
0.00039257219
0.00020347796
0.00010106215
5.0690028e-05
2.6112915e-05
1.8365342e-05
1.3814722e-05
9.2250281e-06
6.3499871e-06
2.9531789e-06
1.9913761e-06
1.2278632e-06
7.8310832e-07
4.8377663e-07
2.7902425e-07
1.300858e-07
5.0314454e-08
1.6936633e-08
5.074484e-09
1.3691423e-09
3.3070809e-10
6.9682665e-11
1.225739e-11
1.8010205e-12
3.9739819e-13
3.0947273e-13
3.274735e-13
0.00097799933
0.00025891849
0.00035793355
0.00039303328
0.00020380878
0.00010124067
5.0760658e-05
2.6122608e-05
1.8360847e-05
1.3813007e-05
9.2231511e-06
6.3470968e-06
2.9523838e-06
1.9910532e-06
1.2277153e-06
7.8294829e-07
4.8363236e-07
2.7891349e-07
1.2999774e-07
5.0273095e-08
1.6920959e-08
5.0694567e-09
1.3677342e-09
3.3036095e-10
6.9608693e-11
1.224433e-11
1.7991459e-12
3.9703789e-13
3.0921432e-13
3.2719992e-13
0.00097820248
0.00025903228
0.00035803708
0.00039348404
0.00020413671
0.00010141845
5.0831645e-05
2.6132722e-05
1.8356449e-05
1.3811375e-05
9.2212975e-06
6.344247e-06
2.95162e-06
1.9907596e-06
1.2275857e-06
7.8280016e-07
4.8349546e-07
2.78807e-07
1.2991177e-07
5.023257e-08
1.6905574e-08
5.0645181e-09
1.3663505e-09
3.3001981e-10
6.9536007e-11
1.2231497e-11
1.7973032e-12
3.9668267e-13
3.08959e-13
3.2692956e-13
0.00097840266
0.0002591431
0.00035813269
0.00039392623
0.00020446199
0.00010159568
5.0903035e-05
2.6143277e-05
1.8352157e-05
1.3809811e-05
9.2194655e-06
6.3414318e-06
2.9508853e-06
1.9904938e-06
1.2274742e-06
7.8266374e-07
4.833659e-07
2.7870479e-07
1.2982795e-07
5.0192907e-08
1.6890486e-08
5.0596693e-09
1.3649909e-09
3.2968445e-10
6.9464514e-11
1.2218868e-11
1.7954881e-12
3.9633149e-13
3.0870597e-13
3.2666159e-13
0.00097859998
0.00025925135
0.00035822087
0.00039436057
0.00020478492
0.00010177246
5.0974793e-05
2.6154257e-05
1.8347968e-05
1.3808305e-05
9.217653e-06
6.3386464e-06
2.9501782e-06
1.9902546e-06
1.2273803e-06
7.8253889e-07
4.8324361e-07
2.7860683e-07
1.297462e-07
5.0154069e-08
1.6875682e-08
5.0549066e-09
1.3636548e-09
3.2935477e-10
6.9394225e-11
1.2206451e-11
1.7937023e-12
3.959849e-13
3.0845571e-13
3.2639648e-13
0.00097879457
0.00025935724
0.00035830193
0.00039478756
0.0002051059
0.00010194888
5.1046913e-05
2.6165668e-05
1.8343895e-05
1.3806851e-05
9.2158553e-06
6.3358874e-06
2.9494972e-06
1.9900415e-06
1.2273039e-06
7.8242563e-07
4.8312865e-07
2.785132e-07
1.296666e-07
5.0116099e-08
1.6861178e-08
5.0502349e-09
1.3623432e-09
3.2903094e-10
6.9325146e-11
1.219424e-11
1.7919438e-12
3.9564184e-13
3.0820718e-13
3.2613316e-13
0.00097898656
0.00025946087
0.00035837648
0.00039520818
0.0002054251
0.00010212493
5.1119408e-05
2.6177506e-05
1.8339948e-05
1.380545e-05
9.2140712e-06
6.3331518e-06
2.9488408e-06
1.9898534e-06
1.2272449e-06
7.8232368e-07
4.8302083e-07
2.7842372e-07
1.2958899e-07
5.0078912e-08
1.6846943e-08
5.0456454e-09
1.3610542e-09
3.2871269e-10
6.9257263e-11
1.2182241e-11
1.7902146e-12
3.9530296e-13
3.079609e-13
3.2587219e-13
0.00097917606
0.0002595623
0.00035844509
0.00039562413
0.00020574282
0.00010230067
5.119231e-05
2.6189773e-05
1.8336115e-05
1.3804097e-05
9.2123011e-06
6.330436e-06
2.9482078e-06
1.9896889e-06
1.2272025e-06
7.8223285e-07
4.8292011e-07
2.7833848e-07
1.2951348e-07
5.004257e-08
1.6832997e-08
5.0411433e-09
1.3597886e-09
3.2840002e-10
6.9190535e-11
1.217044e-11
1.7885116e-12
3.9496743e-13
3.0771624e-13
3.2561288e-13
0.00097936321
0.00025966161
0.00035850847
0.00039603683
0.00020605954
0.00010247636
5.1265658e-05
2.620248e-05
1.8332404e-05
1.3802783e-05
9.21054e-06
6.3277369e-06
2.947597e-06
1.9895477e-06
1.2271766e-06
7.8215284e-07
4.8282624e-07
2.782573e-07
1.2943998e-07
5.0007023e-08
1.6819325e-08
5.0367235e-09
1.3585454e-09
3.2809278e-10
6.9124954e-11
1.2158839e-11
1.786836e-12
3.9463565e-13
3.0747352e-13
3.2535557e-13
0.00097954815
0.0002597589
0.00035856698
0.00039644621
0.00020637546
0.00010265207
5.1339422e-05
2.6215609e-05
1.8328818e-05
1.3801505e-05
9.2087809e-06
6.3250519e-06
2.947007e-06
1.9894296e-06
1.2271671e-06
7.8208357e-07
4.8273913e-07
2.781801e-07
1.2936847e-07
4.9972283e-08
1.680593e-08
5.0323882e-09
1.3573249e-09
3.2779096e-10
6.9060494e-11
1.2147429e-11
1.7851849e-12
3.9430634e-13
3.072315e-13
3.2509896e-13
0.000979731
0.00025985406
0.00035862054
0.00039685134
0.00020669038
0.00010282765
5.1413563e-05
2.622916e-05
1.8325351e-05
1.3800256e-05
9.207021e-06
6.322378e-06
2.9464371e-06
1.989334e-06
1.2271737e-06
7.8202482e-07
4.8265855e-07
2.7810666e-07
1.2929875e-07
4.9938238e-08
1.6792774e-08
5.0281253e-09
1.3561244e-09
3.2749408e-10
6.8997098e-11
1.2136209e-11
1.7835597e-12
3.9398007e-13
3.069907e-13
3.2484361e-13
0.00097991188
0.00025994705
0.00035866932
0.00039725204
0.00020700417
0.00010300303
5.1488081e-05
2.6243147e-05
1.8322008e-05
1.3799033e-05
9.2052616e-06
6.319714e-06
2.9458869e-06
1.9892599e-06
1.2271962e-06
7.8197655e-07
4.825846e-07
2.7803715e-07
1.2923095e-07
4.9904963e-08
1.6779881e-08
5.0239416e-09
1.3549451e-09
3.2720225e-10
6.8934749e-11
1.2125167e-11
1.7819575e-12
3.9365619e-13
3.0675067e-13
3.2458903e-13
0.0009800909
0.00026003796
0.00035871356
0.00039764935
0.00020731719
0.00010317834
5.1563016e-05
2.6257571e-05
1.8318783e-05
1.3797835e-05
9.2035008e-06
6.3170589e-06
2.9453561e-06
1.9892073e-06
1.2272345e-06
7.8193863e-07
4.8251715e-07
2.7797145e-07
1.2916503e-07
4.9872429e-08
1.6767241e-08
5.0198344e-09
1.3537865e-09
3.2691545e-10
6.8873461e-11
1.2114311e-11
1.7803803e-12
3.9333539e-13
3.06512e-13
3.2433585e-13
0.0009802682
0.00026012689
0.00035875332
0.00039804409
0.00020762987
0.00010335366
5.1638414e-05
2.6272444e-05
1.8315673e-05
1.3796654e-05
9.2017312e-06
6.3144107e-06
2.9448441e-06
1.9891768e-06
1.2272888e-06
7.8191114e-07
4.8245619e-07
2.7790957e-07
1.2910101e-07
4.9840664e-08
1.6754867e-08
5.0158083e-09
1.3526498e-09
3.2663387e-10
6.8813251e-11
1.2103637e-11
1.7788262e-12
3.9301648e-13
3.0627349e-13
3.240828e-13
0.00098044389
0.00026021393
0.00035878835
0.00039843574
0.00020794196
0.00010352888
5.1714226e-05
2.6287768e-05
1.8312682e-05
1.3795485e-05
9.1999522e-06
6.3117672e-06
2.9443503e-06
1.9891678e-06
1.2273589e-06
7.818939e-07
4.8240154e-07
2.7785127e-07
1.2903865e-07
4.9809541e-08
1.6742712e-08
5.0118486e-09
1.3515315e-09
3.2635685e-10
6.8754032e-11
1.2093141e-11
1.7772962e-12
3.9270017e-13
3.0603584e-13
3.2383063e-13
0.00098061806
0.00026029907
0.00035881844
0.00039882361
0.00020825285
0.00010370374
5.1790393e-05
2.6303533e-05
1.8309804e-05
1.379433e-05
9.1981698e-06
6.3091298e-06
2.9438751e-06
1.9891797e-06
1.2274447e-06
7.8188697e-07
4.8235337e-07
2.7779675e-07
1.2897813e-07
4.9779152e-08
1.6730807e-08
5.0079639e-09
1.3504332e-09
3.2608461e-10
6.8695797e-11
1.2082811e-11
1.7757875e-12
3.9238581e-13
3.057986e-13
3.2357887e-13
0.00098079085
0.00026038235
0.00035884382
0.00039920795
0.00020856244
0.00010387839
5.1866955e-05
2.6319762e-05
1.8307059e-05
1.3793183e-05
9.1963759e-06
6.3064979e-06
2.9434179e-06
1.9892125e-06
1.2275461e-06
7.8189027e-07
4.8231158e-07
2.7774596e-07
1.2891941e-07
4.9749461e-08
1.6719138e-08
5.0041502e-09
1.3493541e-09
3.2581701e-10
6.8638543e-11
1.2072654e-11
1.7743019e-12
3.9207418e-13
3.0556249e-13
3.2332828e-13
0.00098096234
0.00026046384
0.0003588649
0.00039958942
0.00020887119
0.00010405314
5.194395e-05
2.6336434e-05
1.8304434e-05
1.3792039e-05
9.1945652e-06
6.3038689e-06
2.9429783e-06
1.9892665e-06
1.2276632e-06
7.8190387e-07
4.8227623e-07
2.7769893e-07
1.2886254e-07
4.9720513e-08
1.6707725e-08
5.0004136e-09
1.3482957e-09
3.255543e-10
6.8582293e-11
1.2062665e-11
1.7728372e-12
3.9176409e-13
3.0532634e-13
3.2307761e-13
0.00098113265
0.0002605436
0.00035888192
0.00039996816
0.00020917943
0.00010422807
5.2021392e-05
2.6353539e-05
1.8301908e-05
1.3790892e-05
9.1927393e-06
6.3012423e-06
2.9425564e-06
1.9893414e-06
1.2277959e-06
7.8192758e-07
4.8224708e-07
2.7765544e-07
1.288073e-07
4.9692191e-08
1.6696522e-08
4.9967407e-09
1.3472548e-09
3.2529596e-10
6.8526993e-11
1.2052847e-11
1.771396e-12
3.9145665e-13
3.0509115e-13
3.2282795e-13
0.00098130188
0.00026062162
0.00035889478
0.00040034385
0.00020948721
0.00010440306
5.2099259e-05
2.6371107e-05
1.8299504e-05
1.3789739e-05
9.1908957e-06
6.298618e-06
2.942152e-06
1.9894368e-06
1.227944e-06
7.8196143e-07
4.8222428e-07
2.7761566e-07
1.2875386e-07
4.9664582e-08
1.6685562e-08
4.9931405e-09
1.3462333e-09
3.2504224e-10
6.8472643e-11
1.204319e-11
1.7699752e-12
3.9115105e-13
3.0485631e-13
3.225786e-13
0.0009814701
0.00026069789
0.00035890326
0.00040071611
0.0002097944
0.00010457791
5.2177486e-05
2.6389142e-05
1.8297214e-05
1.3788581e-05
9.1890305e-06
6.295995e-06
2.9417649e-06
1.9895528e-06
1.2281077e-06
7.8200542e-07
4.822078e-07
2.7757953e-07
1.2870216e-07
4.9637651e-08
1.6674832e-08
4.9896094e-09
1.3452306e-09
3.2479306e-10
6.8419257e-11
1.2033702e-11
1.7685774e-12
3.9084838e-13
3.0462282e-13
3.2233064e-13
0.00098163743
0.00026077242
0.00035890718
0.00040108451
0.00021010073
0.00010475242
5.2256065e-05
2.640766e-05
1.8295041e-05
1.3787408e-05
9.1871458e-06
6.2933739e-06
2.9413954e-06
1.9896899e-06
1.228287e-06
7.820598e-07
4.8219783e-07
2.7754723e-07
1.2865234e-07
4.9611477e-08
1.6664364e-08
4.9861578e-09
1.3442492e-09
3.2454896e-10
6.8366911e-11
1.2024389e-11
1.7672015e-12
3.9054747e-13
3.0438949e-13
3.2208281e-13
0.00098180394
0.00026084519
0.00035890632
0.00040144872
0.00021040575
0.00010492642
5.2335036e-05
2.6426672e-05
1.8292989e-05
1.3786218e-05
9.1852392e-06
6.2907541e-06
2.9410434e-06
1.9898479e-06
1.228482e-06
7.8212432e-07
4.8219413e-07
2.775185e-07
1.2860416e-07
4.9585933e-08
1.6654108e-08
4.9827701e-09
1.3432854e-09
3.2430925e-10
6.8315523e-11
1.2015249e-11
1.7658494e-12
3.9024927e-13
3.0415716e-13
3.2183605e-13
0.00098196971
0.00026091619
0.00035890056
0.00040180854
0.00021070879
0.00010509984
5.2414418e-05
2.6446192e-05
1.829106e-05
1.3785018e-05
9.1833081e-06
6.2881344e-06
2.9407083e-06
1.990026e-06
1.2286922e-06
7.8219893e-07
4.8219677e-07
2.7749349e-07
1.2855779e-07
4.9561103e-08
1.6644095e-08
4.9794551e-09
1.342341e-09
3.2407413e-10
6.8265076e-11
1.2006268e-11
1.7645173e-12
3.8995283e-13
3.0392513e-13
3.2158956e-13
0.00098213485
0.00026098544
0.00035889016
0.00040216415
0.00021100979
0.00010527294
5.2494178e-05
2.6466208e-05
1.8289254e-05
1.3783791e-05
9.1813495e-06
6.285514e-06
2.9403897e-06
1.9902239e-06
1.2289175e-06
7.8228355e-07
4.8220569e-07
2.7747214e-07
1.2851317e-07
4.9536951e-08
1.663431e-08
4.9762083e-09
1.3414151e-09
3.2384347e-10
6.8215575e-11
1.1997453e-11
1.7632079e-12
3.8965942e-13
3.036946e-13
3.2134462e-13
0.00098229941
0.00026105295
0.00035887547
0.00040251579
0.0002113096
0.00010544625
5.2574284e-05
2.6486677e-05
1.8287565e-05
1.3782534e-05
9.1793589e-06
6.2828916e-06
2.9400874e-06
1.990442e-06
1.2291581e-06
7.8237827e-07
4.8222099e-07
2.7745455e-07
1.2847042e-07
4.9513552e-08
1.6624786e-08
4.9730404e-09
1.3405102e-09
3.2361783e-10
6.8167101e-11
1.198881e-11
1.7619201e-12
3.8936772e-13
3.0346419e-13
3.2109977e-13
0.00098246347
0.00026111882
0.0003588566
0.00040286345
0.00021160864
0.00010561964
5.2654743e-05
2.6507632e-05
1.8286007e-05
1.3781245e-05
9.1773307e-06
6.2802651e-06
2.939801e-06
1.9906801e-06
1.2294137e-06
7.8248276e-07
4.8224232e-07
2.7744042e-07
1.2842924e-07
4.9490754e-08
1.6615463e-08
4.9699332e-09
1.3396222e-09
3.2339637e-10
6.811954e-11
1.1980332e-11
1.7606548e-12
3.8907845e-13
3.0323454e-13
3.2085571e-13
0.0009826271
0.00026118318
0.00035883353
0.00040320668
0.0002119064
0.00010579244
5.273555e-05
2.6529103e-05
1.828458e-05
1.3779918e-05
9.1752657e-06
6.2776339e-06
2.9395301e-06
1.9909377e-06
1.2296841e-06
7.8259702e-07
4.8226978e-07
2.7742988e-07
1.283898e-07
4.9468642e-08
1.6606373e-08
4.9668959e-09
1.3387527e-09
3.2317931e-10
6.8072883e-11
1.1972007e-11
1.7594087e-12
3.8879072e-13
3.0300501e-13
3.2061172e-13
0.00098279035
0.00026124601
0.00035880601
0.00040354444
0.00021220232
0.00010596444
5.2816684e-05
2.6551082e-05
1.8283269e-05
1.3778548e-05
9.1731614e-06
6.2749983e-06
2.9392749e-06
1.9912148e-06
1.2299693e-06
7.8272097e-07
4.823033e-07
2.7742287e-07
1.2835204e-07
4.9447187e-08
1.6597505e-08
4.963925e-09
1.3379012e-09
3.229666e-10
6.8027146e-11
1.1963843e-11
1.7581845e-12
3.8850592e-13
3.0277692e-13
3.2036922e-13
0.00098295329
0.00026130727
0.0003587735
0.00040387551
0.00021249595
0.0001061357
5.2898096e-05
2.6573587e-05
1.8282092e-05
1.377713e-05
9.1710121e-06
6.2723581e-06
2.9390357e-06
1.9915123e-06
1.2302697e-06
7.8285494e-07
4.8234307e-07
2.7741951e-07
1.283161e-07
4.9426468e-08
1.6588893e-08
4.9610323e-09
1.3370707e-09
3.227589e-10
6.7982436e-11
1.1955851e-11
1.7569819e-12
3.8822276e-13
3.0254888e-13
3.2012673e-13
0.00098311598
0.00026136713
0.00035873555
0.0004041991
0.00021278645
0.00010630593
5.2979713e-05
2.6596614e-05
1.8281054e-05
1.3775664e-05
9.1688206e-06
6.2697139e-06
2.9388127e-06
1.99183e-06
1.230585e-06
7.8299862e-07
4.8238881e-07
2.7741952e-07
1.2828168e-07
4.9406323e-08
1.6580473e-08
4.9581973e-09
1.3362562e-09
3.2255517e-10
6.7938599e-11
1.1948017e-11
1.755801e-12
3.8794206e-13
3.0232172e-13
3.1988517e-13
0.00098327845
0.00026142572
0.00035869245
0.0004045158
0.00021307366
0.00010647504
5.3061551e-05
2.6620164e-05
1.8280162e-05
1.3774152e-05
9.1665898e-06
6.2670652e-06
2.9386061e-06
1.9921671e-06
1.2309152e-06
7.8315211e-07
4.8244074e-07
2.7742317e-07
1.2824901e-07
4.9386873e-08
1.6572289e-08
4.9554331e-09
1.3354605e-09
3.2235592e-10
6.7895681e-11
1.1940339e-11
1.7546399e-12
3.8766312e-13
3.020949e-13
3.1964395e-13
0.00098344077
0.00026148305
0.00035864478
0.00040482698
0.00021335891
0.0001066439
5.3143719e-05
2.6644207e-05
1.8279409e-05
1.377258e-05
9.1643085e-06
6.2644102e-06
2.9384156e-06
1.9925239e-06
1.2312601e-06
7.8331525e-07
4.8249871e-07
2.7743034e-07
1.2821803e-07
4.9368074e-08
1.6564325e-08
4.9527344e-09
1.3346825e-09
3.2216094e-10
6.7853663e-11
1.1932819e-11
1.7535002e-12
3.8738694e-13
3.0186937e-13
3.1940404e-13
0.00098360299
0.00026153917
0.00035859275
0.00040513313
0.00021364301
0.00010681289
5.32262e-05
2.6668725e-05
1.8278788e-05
1.3770941e-05
9.1619711e-06
6.261749e-06
2.9382415e-06
1.9929016e-06
1.2316202e-06
7.8348826e-07
4.8256284e-07
2.7744111e-07
1.2818881e-07
4.9349988e-08
1.6556607e-08
4.9501108e-09
1.3339246e-09
3.2197075e-10
6.7812631e-11
1.1925464e-11
1.752381e-12
3.871123e-13
3.0164384e-13
3.1916409e-13
0.00098376513
0.00026159405
0.00035853633
0.00040543359
0.00021392498
0.00010698096
5.330884e-05
2.6693747e-05
1.8278304e-05
1.3769235e-05
9.1595817e-06
6.2590819e-06
2.9380841e-06
1.9932998e-06
1.2319954e-06
7.8367087e-07
4.8263282e-07
2.774552e-07
1.2816107e-07
4.933246e-08
1.6549075e-08
4.9475432e-09
1.3331822e-09
3.217844e-10
6.777244e-11
1.1918261e-11
1.751283e-12
3.8684016e-13
3.0141929e-13
3.1892516e-13
0.00098392725
0.00026164771
0.00035847541
0.00040572716
0.00021420398
0.00010714761
5.3391557e-05
2.6719285e-05
1.8277974e-05
1.376747e-05
9.1571459e-06
6.2564108e-06
2.9379443e-06
1.9937185e-06
1.2323856e-06
7.8386328e-07
4.8270887e-07
2.7747282e-07
1.2813505e-07
4.9315616e-08
1.6541776e-08
4.9450453e-09
1.3324584e-09
3.2160249e-10
6.773316e-11
1.1911213e-11
1.7502045e-12
3.8656969e-13
3.0119499e-13
3.1868646e-13
0.00098408939
0.00026170019
0.00035840979
0.00040601289
0.00021447991
0.00010731304
5.3474385e-05
2.6745329e-05
1.8277795e-05
1.3765646e-05
9.1546613e-06
6.2537371e-06
2.9378222e-06
1.9941582e-06
1.2327911e-06
7.8406545e-07
4.8279088e-07
2.7749387e-07
1.2811065e-07
4.9299394e-08
1.6534686e-08
4.9426097e-09
1.3317513e-09
3.2142462e-10
6.7694734e-11
1.1904314e-11
1.7491462e-12
3.8630171e-13
3.0097178e-13
3.1844887e-13
0.00098425161
0.00026175147
0.00035833955
0.00040629113
0.00021475238
0.0001074772
5.3557395e-05
2.6771874e-05
1.8277752e-05
1.3763755e-05
9.1521281e-06
6.2510613e-06
2.9377183e-06
1.9946201e-06
1.2332124e-06
7.842778e-07
4.8287917e-07
2.7751853e-07
1.2808801e-07
4.9283884e-08
1.6527842e-08
4.9402488e-09
1.3310644e-09
3.2125154e-10
6.7657291e-11
1.189758e-11
1.7481086e-12
3.8603544e-13
3.0074877e-13
3.1821146e-13
0.00098441393
0.00026180153
0.00035826526
0.0004065632
0.00021502157
0.00010764023
5.3640556e-05
2.6798902e-05
1.8277851e-05
1.3761804e-05
9.1495475e-06
6.2483835e-06
2.9376333e-06
1.995104e-06
1.2336493e-06
7.8450008e-07
4.8297346e-07
2.7754654e-07
1.2806685e-07
4.9268925e-08
1.6521179e-08
4.9379418e-09
1.3303922e-09
3.2108211e-10
6.7620646e-11
1.1890991e-11
1.7470908e-12
3.8577139e-13
3.0052653e-13
3.1797487e-13
0.00098457638
0.00026185046
0.00035818729
0.0004068298
0.00021528838
0.00010780269
5.3723771e-05
2.6826375e-05
1.8278095e-05
1.3759803e-05
9.1469246e-06
6.2457042e-06
2.9375668e-06
1.9956095e-06
1.2341019e-06
7.8473253e-07
4.8307405e-07
2.775782e-07
1.2804742e-07
4.9254642e-08
1.6514745e-08
4.9357031e-09
1.3297383e-09
3.2091701e-10
6.7584889e-11
1.1884552e-11
1.7460921e-12
3.8550905e-13
3.0030462e-13
3.1773859e-13
0.000984739
0.00026189839
0.00035810559
0.00040709045
0.00021555291
0.00010796454
5.3806993e-05
2.6854262e-05
1.8278477e-05
1.3757752e-05
9.1442649e-06
6.2430236e-06
2.937519e-06
1.9961365e-06
1.2345701e-06
7.8497509e-07
4.8318089e-07
2.7761347e-07
1.2802966e-07
4.9241003e-08
1.6508525e-08
4.9335281e-09
1.3291014e-09
3.2075602e-10
6.7549999e-11
1.1878265e-11
1.7451141e-12
3.8524948e-13
3.0008409e-13
3.1750373e-13
0.0009849018
0.00026194544
0.00035802015
0.00040734492
0.00021581472
0.0001081251
5.3890259e-05
2.6882599e-05
1.8278993e-05
1.3755658e-05
9.141569e-06
6.2403429e-06
2.93749e-06
1.9966861e-06
1.2350544e-06
7.8522805e-07
4.8329417e-07
2.7765251e-07
1.2801375e-07
4.9228106e-08
1.6502562e-08
4.9314309e-09
1.3284855e-09
3.2060001e-10
6.7516133e-11
1.187215e-11
1.7441578e-12
3.8499179e-13
2.9986386e-13
3.1726914e-13
0.00098506483
0.00026199172
0.00035793116
0.00040759319
0.00021607367
0.0001082843
5.3973611e-05
2.69114e-05
1.8279645e-05
1.3753531e-05
9.138838e-06
6.2376619e-06
2.9374792e-06
1.9972581e-06
1.2355547e-06
7.8549101e-07
4.8341345e-07
2.7769488e-07
1.2799934e-07
4.9215767e-08
1.6496782e-08
4.929388e-09
1.3278843e-09
3.2044765e-10
6.7483058e-11
1.1866178e-11
1.7432209e-12
3.8473615e-13
2.9964425e-13
3.1703519e-13
0.00098522808
0.00026203728
0.00035783873
0.00040783478
0.00021632955
0.00010844224
5.4056927e-05
2.694063e-05
1.8280422e-05
1.3751374e-05
9.1360816e-06
6.2349805e-06
2.9374865e-06
1.9978523e-06
1.2360709e-06
7.8576423e-07
4.83539e-07
2.7774084e-07
1.2798663e-07
4.9204095e-08
1.6491228e-08
4.9274127e-09
1.3273012e-09
3.2029956e-10
6.7450863e-11
1.1860354e-11
1.7423026e-12
3.8448197e-13
2.9942468e-13
3.1680125e-13
0.00098539159
0.00026208215
0.00035774315
0.00040806993
0.0002165821
0.00010859867
5.4140094e-05
2.6970268e-05
1.8281334e-05
1.3749201e-05
9.1333032e-06
6.2322991e-06
2.9375124e-06
1.9984683e-06
1.2366031e-06
7.8604771e-07
4.8367083e-07
2.7779037e-07
1.2797556e-07
4.9193048e-08
1.6485881e-08
4.9254985e-09
1.3267344e-09
3.2015539e-10
6.7419487e-11
1.1854672e-11
1.7414035e-12
3.8423013e-13
2.9920615e-13
3.1656837e-13
0.00098555536
0.00026212646
0.000357645
0.00040830022
0.00021683178
0.0001087539
5.4223176e-05
2.7000285e-05
1.8282372e-05
1.3747014e-05
9.1305024e-06
6.2296172e-06
2.9375571e-06
1.999107e-06
1.2371518e-06
7.8634191e-07
4.8380933e-07
2.7784377e-07
1.2796636e-07
4.9182748e-08
1.6480792e-08
4.9236624e-09
1.3261886e-09
3.2001622e-10
6.7389141e-11
1.1849165e-11
1.7405264e-12
3.8398032e-13
2.9898807e-13
3.1633597e-13
0.00098571941
0.0002621703
0.00035754483
0.00040852714
0.00021707979
0.00010890865
5.4306339e-05
2.7030667e-05
1.8283518e-05
1.3744813e-05
9.1276835e-06
6.2269349e-06
2.9376199e-06
1.9997681e-06
1.2377166e-06
7.8664639e-07
4.8395405e-07
2.7790068e-07
1.2795871e-07
4.9173024e-08
1.647589e-08
4.9218817e-09
1.3256578e-09
3.1988074e-10
6.7359594e-11
1.18438e-11
1.739669e-12
3.837327e-13
2.9877077e-13
3.1610436e-13
0.00098588374
0.00026221372
0.00035744281
0.00040875034
0.00021732597
0.00010906272
5.4389501e-05
2.7061437e-05
1.8284789e-05
1.3742606e-05
9.1248487e-06
6.2242512e-06
2.9377007e-06
2.0004514e-06
1.2382975e-06
7.8696125e-07
4.8410519e-07
2.7796129e-07
1.2795282e-07
4.9163993e-08
1.6471224e-08
4.9201715e-09
1.3251458e-09
3.1974974e-10
6.7330968e-11
1.1838592e-11
1.7388312e-12
3.8348668e-13
2.985536e-13
3.1587284e-13
0.00098604835
0.00026225677
0.00035733896
0.00040896874
0.00021756939
0.00010921539
5.4472368e-05
2.7092576e-05
1.8286191e-05
1.3740396e-05
9.1220025e-06
6.221567e-06
2.9377998e-06
2.0011563e-06
1.2388945e-06
7.8728642e-07
4.8426261e-07
2.7802549e-07
1.2794859e-07
4.9155593e-08
1.6466766e-08
4.9185232e-09
1.3246504e-09
3.1962271e-10
6.7303179e-11
1.183353e-11
1.7380132e-12
3.8324318e-13
2.9833758e-13
3.156425e-13
0.00098621323
0.00026229953
0.00035723356
0.0004091823
0.00021781008
0.0001093666
5.4555042e-05
2.7124073e-05
1.8287716e-05
1.3738182e-05
9.1191449e-06
6.2188835e-06
2.937918e-06
2.0018841e-06
1.2395081e-06
7.8762235e-07
4.8442669e-07
2.7809354e-07
1.2794623e-07
4.9147945e-08
1.646257e-08
4.9169542e-09
1.3241763e-09
3.1950079e-10
6.7276438e-11
1.1828644e-11
1.7372174e-12
3.8300157e-13
2.9812185e-13
3.1541244e-13
0.00098637838
0.00026234221
0.00035712714
0.00040939195
0.00021804848
0.00010951663
5.4637759e-05
2.7155934e-05
1.828936e-05
1.3735964e-05
9.1162749e-06
6.2161991e-06
2.9380549e-06
2.0026344e-06
1.2401381e-06
7.8796863e-07
4.8459698e-07
2.7816505e-07
1.279454e-07
4.9140856e-08
1.6458555e-08
4.9154386e-09
1.3237167e-09
3.1938241e-10
6.7250465e-11
1.1823897e-11
1.7364405e-12