/*--------------------------------*- C++ -*----------------------------------*\
| =========                 |                                                 |
| \\      /  F ield         | OpenFOAM: The Open Source CFD Toolbox           |
|  \\    /   O peration     | Version:  v2012                                 |
|   \\  /    A nd           | Website:  www.openfoam.com                      |
|    \\/     M anipulation  |                                                 |
\*---------------------------------------------------------------------------*/
FoamFile
{
    version     2.0;
    format      ascii;
    class       volScalarField;
    location    "250";
    object      k;
}
// * * * * * * * * * * * * * * * * * * * * * * * * * * * * * * * * * * * * * //

dimensions      [0 2 -2 0 0 0 0];


internalField   nonuniform List<scalar> 
24000
(
0.092937211
0.10054285
0.098267724
0.098061537
0.10250786
0.1142289
0.13877083
0.19593843
0.34091903
0.54874351
0.54119441
0.33657967
0.29160845
0.46481687
0.59370009
0.60095925
0.5050246
0.36253163
0.22287891
0.12171493
0.06122035
0.028950196
0.012937714
0.0054214496
0.0020895793
0.00072111254
0.0002289
0.00012437119
0.00033120272
0.0023848375
0.092940709
0.10054235
0.098247904
0.098015216
0.10241111
0.11403556
0.13834378
0.1947516
0.33763811
0.54544481
0.54072195
0.33663991
0.28759144
0.46008242
0.59086854
0.6010496
0.50726469
0.36549183
0.22532142
0.12335555
0.062180811
0.029455854
0.013180205
0.0055278889
0.0021325526
0.00073813644
0.00023905438
0.00014212176
0.00039674576
0.0028582608
0.09293781
0.1005298
0.098221917
0.097975612
0.10233671
0.11388855
0.13803711
0.19410829
0.33661654
0.54510761
0.5414647
0.33727334
0.28680079
0.45877376
0.59041937
0.60211039
0.50967951
0.36861806
0.22840743
0.1255069
0.063416587
0.030084814
0.013473465
0.0056538181
0.0021813845
0.00075399996
0.00024129307
0.0001359434
0.00036912492
0.0026577818
0.092934852
0.10051803
0.098198576
0.097939842
0.10227164
0.11375884
0.13778539
0.19365049
0.3359115
0.54461682
0.54134581
0.33732385
0.28642814
0.45836681
0.589951
0.60165968
0.50910809
0.36780642
0.22747392
0.12476965
0.062954517
0.029835587
0.01335286
0.0056008068
0.0021604833
0.00074701003
0.00023992287
0.00013749093
0.00037675058
0.0027134452
0.092932042
0.1005068
0.098176859
0.097905905
0.10220855
0.11363318
0.13754565
0.19321559
0.33521692
0.54395607
0.54087589
0.33709505
0.28626663
0.45799467
0.58952686
0.60133491
0.50896562
0.36783413
0.22760233
0.12488639
0.063028944
0.029875281
0.01337172
0.0056089348
0.0021636167
0.00074801146
0.00024004264
0.00013704089
0.00037477045
0.0026990253
0.092929332
0.1004963
0.098156618
0.097873248
0.10214754
0.1135114
0.13731187
0.19279202
0.33453788
0.54329861
0.54038389
0.33674032
0.28608096
0.45777376
0.58920684
0.60095383
0.50858671
0.36750557
0.22735219
0.12472683
0.062939828
0.029830194
0.013350686
0.0055998766
0.0021600697
0.00074679059
0.00023969649
0.00013697049
0.00037476778
0.0026990725
0.092926737
0.10048649
0.0981375
0.09784146
0.10208781
0.11339151
0.1370806
0.1923726
0.3338599
0.54264944
0.53987232
0.33632922
0.28588545
0.45759418
0.58891826
0.6005778
0.50820833
0.36719444
0.22713736
0.1246013
0.062874265
0.029798511
0.013336325
0.0055937908
0.0021576993
0.00074596196
0.00023942449
0.00013680518
0.00037430409
0.0026957402
0.092924264
0.10047726
0.098119254
0.097810327
0.10202899
0.11327299
0.13685126
0.19195641
0.33318342
0.54200013
0.53935634
0.33590068
0.28568685
0.45743792
0.58865113
0.60020576
0.50781558
0.36685818
0.2268957
0.12445616
0.062797071
0.029760801
0.013319138
0.0055864945
0.0021548611
0.00074497715
0.00023911511
0.00013665062
0.00037391559
0.0026929568
0.092921921
0.10046857
0.098101672
0.097779715
0.10197091
0.1131556
0.13662371
0.19154284
0.33250751
0.54134576
0.53883903
0.33546948
0.28548906
0.45729107
0.5883934
0.59983821
0.50742279
0.36652017
0.22665256
0.12431039
0.062719746
0.02972313
0.013302005
0.005579235
0.0021520411
0.00074399923
0.00023880672
0.00013649256
0.00037351095
0.0026900521
0.092919692
0.10046044
0.09808463
0.097749547
0.10191347
0.11303929
0.136398
0.19113179
0.33183206
0.54068499
0.53832219
0.33504171
0.28529336
0.45714839
0.58814065
0.59947451
0.5070318
0.36618234
0.22640886
0.12416414
0.062642167
0.029685352
0.013284842
0.0055719694
0.002149222
0.00074302295
0.00023849991
0.00013633733
0.00037311641
0.0026872189
0.092917561
0.1004528
0.098068046
0.097719784
0.10185664
0.11292405
0.13617418
0.19072328
0.33115723
0.54001741
0.53780626
0.33461898
0.28510019
0.45700738
0.58789075
0.59911466
0.50664466
0.36584771
0.22616744
0.12401931
0.062565396
0.029647993
0.013267876
0.0055647912
0.0021464378
0.00074205917
0.00023819726
0.00013618456
0.00037272846
0.002684432
0.092915537
0.1004455
0.098051873
0.097690407
0.10180041
0.11280991
0.13595229
0.19031738
0.33048335
0.53934318
0.53729127
0.33420155
0.28490961
0.45686722
0.58764309
0.59875886
0.50626214
0.36551714
0.22592899
0.12387632
0.062489633
0.02961114
0.013251149
0.0055577165
0.002143695
0.00074111013
0.00023789957
0.00013603493
0.00037234942
0.0026817085
0.092913627
0.10043852
0.098036081
0.097661407
0.10174478
0.11269687
0.13573235
0.18991419
0.32981076
0.53866264
0.53677701
0.33378899
0.28472153
0.45672774
0.58739763
0.59840738
0.50588483
0.36519138
0.22569409
0.12373555
0.062415067
0.029574881
0.013234691
0.0055507563
0.0021409964
0.00074017645
0.00023760686
0.00013588823
0.00037197842
0.0026790425
0.09291183
0.10043185
0.098020648
0.097632777
0.10168974
0.11258496
0.13551442
0.18951382
0.32913978
0.53797617
0.53626324
0.33338059
0.28453581
0.45658919
0.58715476
0.5980606
0.50551299
0.36487046
0.22546275
0.12359693
0.062341678
0.029539204
0.013218504
0.0055439126
0.0021383439
0.00073925902
0.00023731948
0.00013574465
0.00037161596
0.0026764375
0.09291015
0.1004255
0.098005559
0.097604516
0.1016353
0.11247419
0.13529852
0.18911634
0.3284708
0.53728417
0.5357497
0.33297563
0.2843523
0.45645188
0.58691489
0.59771887
0.505147
0.36455479
0.22523525
0.12346067
0.062269546
0.029504142
0.013202596
0.0055371863
0.0021357365
0.00073835715
0.00023703711
0.00013560401
0.00037126155
0.0026738898
0.092908585
0.10041944
0.097990804
0.097576622
0.10158148
0.11236459
0.13508469
0.18872182
0.32780413
0.53658699
0.53523611
0.33257342
0.28417086
0.45631618
0.58667846
0.59738256
0.50478702
0.36424441
0.22501157
0.12332672
0.062198659
0.029469692
0.013186968
0.0055305792
0.0021331757
0.00073747153
0.00023675997
0.00013546626
0.00037091483
0.0026713969
0.092907136
0.10041367
0.097976377
0.097549099
0.10152826
0.11225617
0.13487297
0.18833031
0.32714014
0.53588499
0.53472217
0.33217327
0.28399134
0.45618244
0.5864459
0.59705191
0.50443318
0.3639394
0.22479176
0.12319513
0.062129026
0.029435855
0.013171617
0.0055240886
0.0021306596
0.00073660119
0.00023648751
0.00013533068
0.00037057332
0.0026689409
0.092905803
0.10040818
0.097962273
0.097521947
0.10147566
0.11214895
0.1346634
0.18794188
0.3264792
0.53517856
0.53420753
0.33177456
0.28381362
0.4560511
0.5862177
0.59672713
0.50408533
0.36363932
0.22457541
0.12306557
0.062060472
0.029402544
0.013156508
0.0055177015
0.0021281842
0.00073574509
0.00023621948
0.0001351971
0.00037023638
0.0026665175
0.092904583
0.10040296
0.097948488
0.097495171
0.1014237
0.11204293
0.13445601
0.18755652
0.3258207
0.53446966
0.53369178
0.33137679
0.28363757
0.45592239
0.58599412
0.59640837
0.50374356
0.36334426
0.22436252
0.12293805
0.061992984
0.029369746
0.013141629
0.00551141
0.0021257452
0.00073490135
0.00023595518
0.00013506512
0.00036990307
0.0026641197
0.092903477
0.10039801
0.09793502
0.097468775
0.10137236
0.11193812
0.13425084
0.18717426
0.32516386
0.53376046
0.53317453
0.33097948
0.28346306
0.45579655
0.5857754
0.59609577
0.50340784
0.36305409
0.22415295
0.12281245
0.061926501
0.029337432
0.013126968
0.0055052108
0.002123342
0.00073406997
0.00023569468
0.00013493485
0.00036957369
0.0026617499
0.092902482
0.10039331
0.097921871
0.097442764
0.10132168
0.11183456
0.13404792
0.18679514
0.32450886
0.53305109
0.53265552
0.33058218
0.28328997
0.45567372
0.58556172
0.59578942
0.50307824
0.36276891
0.22394679
0.12268886
0.06186106
0.02930562
0.01311253
0.0054991042
0.0021209739
0.00073325039
0.00023543765
0.00013480588
0.00036924693
0.0026593984
0.092901597
0.10038888
0.097909038
0.097417141
0.10127164
0.11173225
0.13384727
0.18641921
0.32385586
0.53234153
0.53213458
0.33018454
0.28311821
0.45555413
0.58535333
0.5954894
0.50275463
0.36248842
0.22374376
0.12256706
0.061796546
0.029274253
0.013098296
0.0054930846
0.0021186399
0.00073244274
0.00023518425
0.00013467832
0.00036892301
0.0026570672
0.09290082
0.1003847
0.097896524
0.097391912
0.10122226
0.11163121
0.13364893
0.18604655
0.32320506
0.5316317
0.53161157
0.32978623
0.28294768
0.4554379
0.58515035
0.59519581
0.5024371
0.36221272
0.22354393
0.1224471
0.061732987
0.029243343
0.013084265
0.0054871492
0.0021163379
0.00073164585
0.000234934
0.00013455187
0.00036860111
0.0026547499
0.092900149
0.10038076
0.097884329
0.097367083
0.10117356
0.11153145
0.1334529
0.1856772
0.32255662
0.53092147
0.53108634
0.32938697
0.2827783
0.4553251
0.58495287
0.59490868
0.50212561
0.36194174
0.2233472
0.1223289
0.061670339
0.029212869
0.013070432
0.0054812968
0.0021140681
0.00073086004
0.00023468708
0.00013442669
0.00036828176
0.0026524505
0.092899581
0.10037708
0.097872457
0.097342659
0.10112554
0.11143299
0.13325921
0.18531121
0.32191059
0.53021075
0.53055876
0.32898656
0.28261
0.45521576
0.58476093
0.59462803
0.50182022
0.36167559
0.22315371
0.12221259
0.061608662
0.029182862
0.013056805
0.0054755307
0.0021118309
0.00073008518
0.00023444329
0.00013430247
0.0003679638
0.0026501607
0.092899114
0.10037363
0.097860906
0.097318645
0.1010782
0.11133583
0.13306789
0.18494861
0.32126709
0.5294995
0.53002869
0.32858481
0.2824427
0.45510998
0.58457465
0.59435389
0.50152082
0.36141401
0.22296319
0.12209795
0.061547851
0.02915327
0.01304337
0.0054698459
0.0021096257
0.00072932153
0.00023420286
0.00013417939
0.00036764779
0.0026478846
0.092898745
0.10037042
0.097849679
0.097295045
0.10103156
0.11124
0.13287896
0.18458945
0.32062615
0.52878761
0.52949604
0.32818152
0.28227634
0.45500777
0.58439402
0.59408627
0.5012275
0.3611572
0.22277583
0.12198512
0.061487977
0.029124126
0.013030133
0.0054642436
0.0021074518
0.00072856836
0.00023396544
0.00013405721
0.00036733307
0.0026456174
0.092898473
0.10036744
0.097838776
0.097271865
0.10098563
0.1111455
0.13269244
0.18423379
0.31998784
0.52807501
0.52896073
0.32777651
0.28211084
0.45490919
0.58421912
0.59382517
0.50094015
0.36090499
0.22259149
0.121874
0.061428979
0.029095401
0.013017085
0.0054587211
0.0021053089
0.00072782584
0.00023373116
0.00013393606
0.00036702001
0.0026433615
0.092898294
0.1003647
0.097828197
0.09724911
0.10094041
0.11105236
0.13250837
0.18388166
0.31935224
0.52736164
0.52842264
0.32736963
0.28194616
0.45481431
0.58404996
0.59357051
0.50065869
0.36065737
0.22241018
0.12176463
0.061370883
0.029067109
0.01300423
0.0054532789
0.0021031964
0.0007270935
0.00023349971
0.00013381553
0.0003667072
0.0026411069
0.092898208
0.10036218
0.097817945
0.097226784
0.10089592
0.11096058
0.13232676
0.18353309
0.31871934
0.52664741
0.5278816
0.32696072
0.28178223
0.45472316
0.58388661
0.59332228
0.50038297
0.36041401
0.22223158
0.12165676
0.061313555
0.029039185
0.012991544
0.0054479089
0.0021011124
0.00072637119
0.00023327121
0.00013369579
0.00036639519
0.0026388578
0.092898213
0.10035989
0.097808018
0.097204892
0.10085216
0.11087018
0.13214762
0.1831881
0.31808917
0.52593217
0.52733748
0.32654969
0.28161901
0.45463566
0.58372895
0.59308044
0.50011306
0.36017513
0.22205591
0.12155055
0.061257083
0.029011668
0.012979038
0.005442614
0.002099057
0.0007256584
0.00023304537
0.00013357665
0.00036608355
0.002636611
0.092898305
0.10035781
0.097798418
0.097183437
0.10080913
0.11078117
0.13197097
0.18284671
0.31746175
0.52521583
0.52679018
0.32613646
0.28145647
0.45455182
0.583577
0.59284496
0.49984889
0.35994063
0.22188308
0.12144595
0.06120143
0.028984543
0.012966709
0.0054373934
0.0020970303
0.00072495551
0.00023282242
0.00013345835
0.00036577296
0.0026343713
0.092898485
0.10035595
0.097789146
0.097162423
0.10076685
0.11069355
0.13179682
0.18250896
0.31683707
0.52449829
0.5262396
0.32572094
0.28129459
0.45447166
0.58343075
0.59261579
0.4995904
0.35971051
0.22171315
0.12134302
0.061146644
0.028957835
0.012954567
0.0054322507
0.0020950331
0.00072426246
0.00023260215
0.00013334049
0.00036546204
0.0026321287
0.092898748
0.10035431
0.097780201
0.097141854
0.10072532
0.11060734
0.13162517
0.18217489
0.3162152
0.52377947
0.52568563
0.32530301
0.28113333
0.45439524
0.5832903
0.59239291
0.49933742
0.35948443
0.22154575
0.12124148
0.061092567
0.028931466
0.01294258
0.0054271748
0.0020930626
0.0007235788
0.00023238463
0.0001332233
0.00036515155
0.0026298889
0.092899094
0.10035288
0.097771585
0.097121733
0.10068455
0.11052254
0.13145605
0.1818445
0.31559607
0.52305919
0.5251281
0.32488268
0.28097268
0.45432248
0.58315553
0.59217633
0.49909011
0.35926267
0.22138115
0.12114153
0.061039301
0.028905482
0.012930764
0.0054221697
0.0020911188
0.00072290407
0.00023216957
0.00013310658
0.00036484104
0.0026276487
0.092899521
0.10035165
0.097763295
0.097102061
0.10064454
0.11043917
0.13128947
0.1815178
0.31497971
0.52233735
0.5245669
0.32445993
0.28081262
0.45425338
0.58302646
0.59196603
0.49884839
0.35904512
0.22121926
0.12104308
0.060986798
0.02887986
0.01291911
0.005417233
0.0020892016
0.00072223845
0.00023195715
0.00013299057
0.00036453133
0.0026254139
0.092900026
0.10035063
0.097755333
0.097082841
0.10060529
0.11035723
0.13112543
0.18119482
0.31436618
0.52161389
0.52400192
0.32403465
0.28065313
0.45418795
0.58290308
0.59176198
0.49861226
0.35883183
0.22106015
0.12094624
0.060935121
0.028854634
0.012907633
0.005412369
0.0020873117
0.00072158188
0.00023174715
0.00013287491
0.00036422107
0.0026231748
0.092900607
0.10034981
0.097747697
0.097064073
0.10056681
0.11027671
0.13096395
0.1808756
0.31375543
0.52088862
0.52343301
0.3236068
0.28049419
0.45412621
0.58278544
0.59156418
0.49838159
0.35862253
0.22090351
0.12085073
0.060884118
0.028829729
0.012896302
0.0054075685
0.0020854471
0.00072093427
0.00023153981
0.00013275992
0.00036391135
0.0026209394
0.092901263
0.10034919
0.097740387
0.09704576
0.1005291
0.11019764
0.13080504
0.18056015
0.31314748
0.52016139
0.52286004
0.32317635
0.28033578
0.4540681
0.58267344
0.59137259
0.49815645
0.35841741
0.22074958
0.12075674
0.060833896
0.028805194
0.012885135
0.0054028358
0.0020836081
0.0007202952
0.00023133482
0.00013264536
0.00036360153
0.0026187028
0.092901992
0.10034876
0.097733402
0.097027901
0.10049216
0.11012
0.13064869
0.18024846
0.31254232
0.51943211
0.52228282
0.32274324
0.28017788
0.45401357
0.58256705
0.59118716
0.49793678
0.35821639
0.22059826
0.12066421
0.060784409
0.028781009
0.012874126
0.0053981695
0.002081795
0.00071966504
0.00023113243
0.00013253157
0.00036329273
0.002616473
0.092902792
0.10034852
0.09772674
0.097010497
0.100456
0.11004381
0.1304949
0.17994055
0.31193994
0.51870061
0.52170119
0.32230745
0.28002045
0.4539625
0.58246612
0.59100784
0.49772263
0.35801962
0.22044974
0.1205733
0.060735766
0.028757229
0.012863298
0.0053935781
0.0020800101
0.0007190442
0.00023093256
0.00013241819
0.0003629836
0.0026142406
0.092903661
0.10034847
0.0977204
0.096993546
0.1004206
0.10996905
0.13034367
0.17963641
0.3113404
0.51796666
0.52111497
0.32186893
0.27986347
0.45391494
0.58237074
0.59083462
0.49751386
0.35782679
0.22030368
0.12048373
0.060687796
0.028733771
0.012852616
0.0053890504
0.0020782506
0.00071843241
0.00023073537
0.00013230549
0.00036267504
0.002612012
0.092904599
0.1003486
0.09771438
0.096977049
0.10038598
0.10989573
0.13019499
0.17933608
0.31074365
0.51723019
0.52052401
0.32142759
0.2797069
0.45387078
0.5822808
0.59066746
0.49731054
0.35763812
0.22016031
0.12039568
0.060640604
0.02871068
0.012842098
0.0053845897
0.0020765163
0.00071782898
0.00023054046
0.00013219319
0.0003623663
0.0026097818
0.092905604
0.10034891
0.097708679
0.096961005
0.10035212
0.10982384
0.13004884
0.17903957
0.31014973
0.51649103
0.5199281
0.32098336
0.27955068
0.45383
0.58219625
0.59050632
0.49711261
0.3574535
0.22001952
0.12030906
0.060594133
0.028687932
0.012831733
0.0053801937
0.0020748072
0.00071723424
0.00023034811
0.00013208169
0.00036205875
0.0026075598
0.092906675
0.1003494
0.097703294
0.09694541
0.10031903
0.10975338
0.12990525
0.17874688
0.30955868
0.51574897
0.51932703
0.32053615
0.27939477
0.45379251
0.58211698
0.59035111
0.49692005
0.35727303
0.21988148
0.12022404
0.060548493
0.028665583
0.012821546
0.0053758715
0.0020731259
0.00071664865
0.00023015822
0.00013197058
0.00036175081
0.0026053346
0.092907811
0.10035007
0.097698224
0.096930264
0.1002867
0.10968433
0.12976421
0.17845802
0.30897052
0.51500387
0.51872062
0.32008584
0.27923914
0.45375837
0.58204306
0.59020179
0.49673268
0.35709635
0.21974578
0.12014027
0.060503486
0.028643535
0.012811497
0.0053716091
0.0020714685
0.0007160716
0.00022997086
0.00013186005
0.00036144313
0.0026031109
0.092909013
0.10035091
0.097693466
0.096915563
0.10025513
0.10961671
0.12962571
0.17817299
0.3083853
0.51425555
0.51810866
0.31963236
0.27908376
0.45372749
0.58197437
0.59005829
0.49655054
0.35692364
0.21961265
0.12005796
0.060459219
0.028621838
0.012801604
0.0053674106
0.0020698352
0.00071550253
0.00022978565
0.00013174984
0.00036113507
0.0026008841
0.092910278
0.10035192
0.09768902
0.096901306
0.10022431
0.10955048
0.12948974
0.1778918
0.30780301
0.51350374
0.51749088
0.31917569
0.27892859
0.45369981
0.58191081
0.58992054
0.49637355
0.35675482
0.219482
0.11997702
0.060415652
0.028600473
0.012791859
0.0053632749
0.0020682262
0.00071494184
0.00022960291
0.0001316404
0.00036082812
0.0025986649
0.092911608
0.10035309
0.097684883
0.096887489
0.10019424
0.10948566
0.12935626
0.17761445
0.30722367
0.51274829
0.51686705
0.31871579
0.27877363
0.45367524
0.58185226
0.58978842
0.49620169
0.35658998
0.21935402
0.11989765
0.0603729
0.028579502
0.012782291
0.0053592125
0.0020666449
0.00071439027
0.00022942261
0.00013153132
0.0003605207
0.0025964419
0.092913
0.10035443
0.097681054
0.09687411
0.1001649
0.10942221
0.12922525
0.17734093
0.30664731
0.51198897
0.51623696
0.31825264
0.27861889
0.45365383
0.5817988
0.58966194
0.49603481
0.35642878
0.21922827
0.11981946
0.060330746
0.028558814
0.012772853
0.0053552064
0.0020650862
0.00071384682
0.00022924473
0.00013142282
0.00036021366
0.0025942215
0.092914454
0.10035592
0.09767753
0.096861162
0.1001363
0.10936013
0.12909669
0.17707123
0.30607397
0.51122558
0.51560041
0.31778625
0.27846437
0.45363552
0.58175033
0.58954108
0.49587302
0.35627148
0.21910507
0.11974274
0.060289338
0.028538481
0.012763572
0.0053512652
0.0020635519
0.00071331146
0.00022906905
0.00013131472
0.0003599065
0.0025919999
0.092915971
0.10035758
0.097674307
0.096848643
0.10010842
0.1092994
0.12897057
0.17680534
0.30550373
0.51045794
0.51495725
0.31731653
0.27831009
0.45362037
0.58170689
0.58942581
0.49571626
0.35611798
0.2189843
0.11966736
0.060248612
0.028518471
0.012754436
0.0053473849
0.0020620413
0.00071278426
0.00022889576
0.00013120733
0.00035960024
0.0025897844
0.092917549
0.1003594
0.097671383
0.096836547
0.10008125
0.10924
0.1288469
0.17654331
0.30493668
0.50968591
0.51430725
0.3168435
0.27815605
0.45360843
0.58166848
0.5893161
0.49556449
0.35596833
0.21886607
0.11959346
0.06020866
0.028498836
0.012745467
0.0053435745
0.002060557
0.00071226574
0.00022872479
0.00013110025
0.00035929345
0.0025875646
0.092919189
0.10036137
0.097668755
0.096824869
0.10005479
0.10918192
0.12872565
0.1762851
0.30437284
0.50890929
0.5136502
0.31636717
0.27800232
0.45359981
0.58163524
0.58921198
0.49541758
0.35582218
0.21874999
0.11952071
0.060169281
0.028479472
0.012736623
0.0053398178
0.0020590944
0.00071175497
0.00022855615
0.00013099377
0.00035898717
0.0025853483
0.092920891
0.10036349
0.097666418
0.096813605
0.10002902
0.10912515
0.12860678
0.17603068
0.30381224
0.50812785
0.51298593
0.31588765
0.27784893
0.45359444
0.58160706
0.58911345
0.49527567
0.35567986
0.2186364
0.11944937
0.060130629
0.028460455
0.012727933
0.0053361249
0.0020576558
0.00071125219
0.00022838967
0.00013088765
0.00035868063
0.0025831297
0.092922655
0.10036576
0.097664369
0.09680275
0.10000394
0.10906966
0.12849024
0.17578002
0.3032549
0.50734151
0.51231435
0.315405
0.2776959
0.45359235
0.58158401
0.58902052
0.49513872
0.35554122
0.21852514
0.11937933
0.060092624
0.028441743
0.01271938
0.0053324893
0.0020562394
0.00071075704
0.00022822541
0.00013078215
0.00035837477
0.0025809157
0.092924482
0.10036819
0.097662604
0.096792298
0.099979537
0.10901543
0.12837601
0.17553312
0.3027009
0.50655018
0.51163531
0.31491929
0.27754327
0.45359354
0.58156603
0.58893318
0.49500675
0.3554064
0.21841641
0.11931075
0.060055388
0.028423402
0.012710992
0.0053289228
0.0020548491
0.00071027053
0.00022806348
0.00013067701
0.00035806859
0.002578699
0.092926374
0.10037076
0.09766112
0.096782245
0.099955796
0.10896245
0.12826404
0.17528995
0.3021503
0.50575375
0.51094876
0.31443053
0.27739109
0.45359813
0.5815533
0.58885149
0.49487967
0.3552751
0.2183098
0.11924329
0.060018705
0.028405321
0.012702723
0.0053254072
0.0020534792
0.00070979128
0.0002279037
0.00013057238
0.00035776267
0.0025764841
0.092928331
0.10037347
0.097659912
0.096772585
0.099932708
0.10891068
0.12815432
0.1750505
0.30160311
0.50495227
0.51025467
0.31393876
0.27723934
0.45360611
0.5815458
0.58877553
0.49475768
0.35514761
0.21820566
0.11917722
0.059982731
0.028387576
0.012694603
0.0053219531
0.0020521324
0.00070931974
0.00022774602
0.00013046812
0.00035745658
0.0025742676
0.092930354
0.10037634
0.097658978
0.096763313
0.099910262
0.10886011
0.12804684
0.17481472
0.30105939
0.50414575
0.50955308
0.31344397
0.27708804
0.45361751
0.58154358
0.58870534
0.49464077
0.35502392
0.2181039
0.11911247
0.059947417
0.028370142
0.012686621
0.0053185571
0.0020508081
0.0007088559
0.00022759061
0.00013036455
0.0003571515
0.0025720579
0.092932445
0.10037934
0.097658314
0.096754425
0.099888446
0.10881072
0.12794157
0.17458257
0.30051916
0.50333424
0.508844
0.31294623
0.27693718
0.45363231
0.58154661
0.58864091
0.49452902
0.35490419
0.21800476
0.11904924
0.059912899
0.028353093
0.012678812
0.0053152331
0.002049511
0.00070840108
0.00022743764
0.00013026141
0.0003568462
0.0025698463
0.092934605
0.10038249
0.097657916
0.096745914
0.099867251
0.10876248
0.12783844
0.17435402
0.29998242
0.50251792
0.50812755
0.31244549
0.27678675
0.45365065
0.58155506
0.58858229
0.49442224
0.35478801
0.21790777
0.11898714
0.059878939
0.028336305
0.012671121
0.0053119594
0.002048234
0.00070795339
0.00022728676
0.00013015871
0.00035654098
0.002567635
0.092936833
0.10038579
0.097657781
0.096737777
0.099846666
0.10871537
0.1277374
0.17412903
0.29944918
0.5016969
0.50740384
0.31194174
0.27663673
0.45367245
0.58156886
0.58852947
0.49432058
0.35467565
0.21781322
0.11892642
0.059845678
0.028319848
0.012663577
0.0053087465
0.0020469799
0.0007075133
0.00022713792
0.00013005629
0.00035623526
0.0025654197
0.092939133
0.10038922
0.097657905
0.096730007
0.099826677
0.10866937
0.12763842
0.17390754
0.29891939
0.50087133
0.50667304
0.31143498
0.27648709
0.45369768
0.58158796
0.58848245
0.49422401
0.35456705
0.21772103
0.11886697
0.059813055
0.028303689
0.012656164
0.0053055884
0.0020457469
0.0007070804
0.00022699117
0.00012995444
0.00035593014
0.0025632084
0.092941505
0.1003928
0.097658284
0.0967226
0.099807275
0.10862446
0.12754147
0.17368948
0.29839304
0.50004146
0.5059353
0.31092516
0.27633783
0.45372626
0.5816123
0.58844122
0.49413264
0.35446245
0.21763147
0.11880906
0.059781232
0.028287916
0.012648925
0.0053025026
0.0020445412
0.00070665655
0.00022684688
0.00012985305
0.000355625
0.0025609967
0.09294395
0.10039651
0.097658915
0.09671555
0.099788447
0.10858061
0.12744651
0.17347485
0.29787012
0.49920749
0.50519082
0.31041223
0.27618895
0.45375834
0.58164205
0.58840583
0.49404633
0.35436147
0.21754411
0.11875231
0.059749977
0.028272409
0.012641806
0.0052994676
0.0020433556
0.00070623987
0.0002267047
0.00012975215
0.00035532011
0.0025587867
0.092946469
0.10040037
0.097659796
0.096708854
0.099770183
0.1085378
0.12735353
0.17326358
0.2973506
0.49836962
0.50443987
0.30989614
0.27604042
0.45379395
0.58167719
0.58837631
0.49396521
0.3542644
0.21745925
0.11869697
0.059719447
0.028257246
0.012634839
0.0052964962
0.0020421941
0.00070583118
0.00022656468
0.00012965158
0.00035501479
0.0025565731
0.092949064
0.10040436
0.097660922
0.096702506
0.099752472
0.108496
0.12726246
0.17305561
0.29683445
0.49752803
0.50368258
0.30937691
0.27589227
0.45383307
0.58171772
0.58835264
0.49388922
0.35417111
0.21737676
0.11864291
0.059689557
0.028242383
0.012628006
0.0052935803
0.0020410541
0.00070542984
0.0002264268
0.00012955161
0.00035471022
0.0025543645
0.092951736
0.10040849
0.097662291
0.096696503
0.099735304
0.1084552
0.12717326
0.17285086
0.29632156
0.49668284
0.50291911
0.30885459
0.27574451
0.45387561
0.58176351
0.58833476
0.49381842
0.35408181
0.2172969
0.1185904
0.059660473
0.028227911
0.012621348
0.0052907379
0.0020399418
0.00070503772
0.00022629142
0.00012945207
0.0003544054
0.0025521538
0.092954487
0.10041276
0.097663901
0.096690839
0.099718668
0.10841536
0.12708587
0.17264926
0.29581196
0.49583423
0.50214965
0.30832914
0.27559716
0.45392169
0.58181471
0.58832271
0.49375265
0.35399611
0.21721921
0.11853901
0.05963194
0.028213694
0.012614805
0.0052879439
0.0020388488
0.00070465241
0.00022615805
0.00012935297
0.00035410071
0.0025499438
0.092957318
0.10041717
0.097665749
0.09668551
0.099702554
0.10837648
0.12700025
0.17245081
0.29530557
0.49498233
0.50137439
0.30780056
0.27545023
0.45397127
0.58187125
0.58831648
0.49369207
0.35391433
0.21714406
0.11848907
0.059604144
0.028199827
0.012608417
0.0052852144
0.0020377801
0.00070427519
0.00022602686
0.00012925423
0.00035379577
0.0025477318
0.092960231
0.10042172
0.097667833
0.096680511
0.09968695
0.10833852
0.12691638
0.17225541
0.29480233
0.49412734
0.50059337
0.30726887
0.27530377
0.45402441
0.58193316
0.58831609
0.49363664
0.35383639
0.21707132
0.11844044
0.059577009
0.02818627
0.012602167
0.0052825423
0.0020367334
0.00070390551
0.00022589787
0.00012915612
0.0003534916
0.0025455249
0.092963229
0.1004264
0.097670151
0.096675837
0.099671846
0.10830147
0.12683424
0.17206297
0.29430225
0.49326949
0.49980659
0.30673414
0.2751578
0.4540811
0.58200042
0.58832152
0.49358641
0.35376245
0.21700124
0.11839337
0.059550694
0.028173112
0.012596097
0.0052799453
0.0020357152
0.00070354525
0.00022577141
0.0001290584
0.00035318706
0.0025433151
0.092966312
0.10043123
0.097672701
0.096671485
0.099657234
0.10826529
0.12675375
0.17187346
0.29380524
0.49240896
0.49901414
0.30619633
0.27501233
0.45414152
0.58207326
0.58833284
0.49354119
0.35369205
0.21693325
0.11834739
0.059524904
0.028160196
0.012590136
0.0052773948
0.0020347157
0.00070319167
0.00022564695
0.00012896117
0.00035288281
0.0025411071
0.092969483
0.10043619
0.097675482
0.09666745
0.099643103
0.10822998
0.12667488
0.17168683
0.29331128
0.49154587
0.49821608
0.30565547
0.27486738
0.45420564
0.5821516
0.58835009
0.49350117
0.35362555
0.21686779
0.11830284
0.059499847
0.028147632
0.012584331
0.0052749097
0.0020337409
0.00070284633
0.00022552473
0.00012886429
0.00035257822
0.0025388963
0.092972743
0.10044129
0.097678491
0.096663725
0.099629443
0.10819552
0.12659759
0.17150297
0.29282029
0.49068028
0.49741243
0.30511161
0.27472296
0.45427343
0.58223547
0.58837325
0.49346631
0.35356284
0.21680468
0.11825956
0.059475426
0.028135363
0.012578657
0.0052724791
0.002032787
0.00070250817
0.00022540458
0.00012876795
0.00035227413
0.0025366887
0.092976093
0.10044653
0.097681725
0.096660304
0.099616245
0.10816187
0.12652183
0.17132183
0.29233223
0.48981229
0.49660325
0.3045648
0.27457909
0.45434486
0.5823248
0.58840234
0.49343669
0.35350413
0.2167442
0.11821782
0.05945181
0.028123486
0.01257316
0.0052701221
0.0020318611
0.00070217924
0.00022528691
0.00012867202
0.00035196975
0.0025344787
0.092979534
0.10045191
0.097685182
0.096657183
0.099603498
0.10812902
0.12644757
0.17114336
0.29184709
0.48894194
0.4957886
0.30401506
0.27443578
0.45442007
0.5824198
0.58843743
0.49341219
0.35344902
0.21668585
0.11817717
0.05942872
0.02811185
0.012567771
0.0052678109
0.0020309534
0.00070185684
0.0002251712
0.00012857657
0.00035166569
0.0025322709
0.092983069
0.10045744
0.097688858
0.096654357
0.099591192
0.10809696
0.12637479
0.1709675
0.29136477
0.48806932
0.49496852
0.30346245
0.27429305
0.454499
0.5825204
0.58847859
0.49339303
0.35339792
0.21663008
0.11813798
0.059406381
0.028100572
0.01256254
0.0052655659
0.0020300706
0.00070154273
0.00022505773
0.00012848147
0.00035136129
0.0025300604
0.092986697
0.1004631
0.097692749
0.096651819
0.099579319
0.10806565
0.12630344
0.17079418
0.29088527
0.48719451
0.49414303
0.302907
0.27415089
0.45458169
0.58262666
0.58852583
0.49337917
0.35335072
0.21657673
0.11810011
0.059384691
0.028089596
0.012557443
0.0052633761
0.0020292091
0.00070123586
0.00022494637
0.00012838698
0.0003510577
0.0025278552
0.09299042
0.1004689
0.097696853
0.096649564
0.099567869
0.10803509
0.12623348
0.17062333
0.29040851
0.48631751
0.49331223
0.30234878
0.27400935
0.45466808
0.58273851
0.58857915
0.4933707
0.35330762
0.21652608
0.11806381
0.059363831
0.028079025
0.01255253
0.0052612631
0.0020283768
0.00070093871
0.00022483764
0.00012829296
0.00035075391
0.0025256482
0.09299424
0.10047485
0.097701165
0.096647586
0.099556832
0.10800526
0.12616486
0.17045489
0.28993445
0.48543841
0.49247614
0.30178784
0.27386843
0.4547583
0.58285613
0.5886386
0.49336744
0.35326817
0.21647756
0.11802859
0.059343487
0.028068689
0.012547721
0.0052591946
0.0020275623
0.00070064794
0.00022473084
0.00012819943
0.00035045048
0.0025234436
0.092998156
0.10048093
0.097705681
0.096645878
0.099546198
0.10797613
0.12609756
0.1702888
0.28946302
0.4845572
0.49163474
0.3012243
0.27372817
0.45485221
0.58297936
0.5887042
0.49336965
0.35323285
0.21643171
0.11799489
0.059323924
0.028058726
0.012543078
0.0052571954
0.002026774
0.00070036589
0.00022462642
0.00012810633
0.00035014697
0.0025212382
0.093002171
0.10048716