/*--------------------------------*- C++ -*----------------------------------*\
| =========                 |                                                 |
| \\      /  F ield         | OpenFOAM: The Open Source CFD Toolbox           |
|  \\    /   O peration     | Version:  v2012                                 |
|   \\  /    A nd           | Website:  www.openfoam.com                      |
|    \\/     M anipulation  |                                                 |
\*---------------------------------------------------------------------------*/
FoamFile
{
    version     2.0;
    format      ascii;
    class       volScalarField;
    location    "250";
    object      Ma;
}
// * * * * * * * * * * * * * * * * * * * * * * * * * * * * * * * * * * * * * //

dimensions      [0 0 0 0 0 0 0];


internalField   nonuniform List<scalar> 
24000
(
0.03807109
0.038483462
0.03889461
0.0391457
0.039460136
0.039930547
0.040222063
0.038985525
0.035624303
0.032830523
0.030986155
0.029302946
0.027317479
0.024881253
0.022175229
0.019366887
0.016631291
0.014078083
0.011764326
0.0097135526
0.0079273448
0.0063908239
0.0050804281
0.0039696019
0.003031982
0.002243038
0.0015808141
0.0010261341
0.00056249343
0.00017580316
0.038064052
0.038477771
0.038892418
0.039149283
0.039472221
0.039954361
0.040261504
0.039047351
0.035715706
0.032928335
0.03108595
0.029408311
0.02743475
0.025012674
0.022322173
0.019529347
0.016810658
0.014276519
0.011983363
0.0099517565
0.0081788435
0.0066457055
0.005326854
0.0041962469
0.0032297888
0.0024059923
0.0017059374
0.0011130257
0.00061271522
0.00019226686
0.038061698
0.038475549
0.038889143
0.039143453
0.039461697
0.039935999
0.040232035
0.039010428
0.035674337
0.032881623
0.031039946
0.029367116
0.027400172
0.024984104
0.022297935
0.019505887
0.016784339
0.01424262
0.011937592
0.0098918683
0.0081058075
0.0065636076
0.0052415161
0.0041136932
0.0031551287
0.0023428949
0.0016565692
0.0010782495
0.00059238408
0.00018552871
0.038057648
0.038471461
0.038884587
0.039137913
0.039454644
0.039926857
0.040221348
0.039003428
0.035671472
0.032878654
0.031038427
0.029367798
0.027403407
0.024989802
0.022306284
0.019516677
0.016796088
0.014255415
0.011952354
0.0099095235
0.0081265291
0.0065866026
0.0052653488
0.0041367534
0.0031760048
0.0023605614
0.0016704168
0.0010880292
0.00059812341
0.00018744149
0.038053306
0.038466827
0.038879331
0.039131687
0.039447096
0.039917698
0.040211483
0.038997305
0.035667716
0.032872954
0.031031907
0.029360899
0.027396524
0.024983321
0.022300323
0.019511178
0.016790889
0.014250229
0.011946858
0.0099034842
0.0081199382
0.0065796872
0.0052584728
0.0041303009
0.0031702963
0.0023558155
0.0016667483
0.0010854671
0.00059663339
0.00018694921
0.038048536
0.038461695
0.038873724
0.039125429
0.039440046
0.039909723
0.040203549
0.038993236
0.035665949
0.032869433
0.031027275
0.029355553
0.027390684
0.024977399
0.022294638
0.019505897
0.016786109
0.014246019
0.011943281
0.0099005858
0.0081177148
0.0065780764
0.0052573711
0.0041295913
0.0031698693
0.0023555801
0.0016666348
0.0010854247
0.00059662647
0.00018695268
0.03804346
0.038456248
0.03886791
0.039119153
0.039433217
0.039902195
0.040196226
0.03898966
0.035664657
0.032866021
0.031022533
0.029349804
0.027384143
0.024970454
0.022287669
0.019499203
0.01677989
0.014240389
0.011938284
0.0098962181
0.0081139478
0.0065748723
0.0052546914
0.0041273984
0.0031681248
0.0023542442
0.0016656661
0.0010847816
0.00059626775
0.00018683886
0.038038146
0.038450579
0.03886197
0.039112889
0.039426536
0.039894919
0.040189228
0.038986392
0.035663691
0.032862847
0.031017922
0.029344105
0.027377548
0.024963351
0.022280471
0.019492246
0.016773411
0.014234534
0.011933124
0.0098917684
0.0081101846
0.0065717471
0.0052521442
0.004125366
0.0031665454
0.0023530592
0.0016648217
0.0010842291
0.0005959633
0.00018674338
0.038032648
0.038444748
0.038855945
0.039106626
0.039419919
0.039887757
0.040182369
0.038983264
0.035662903
0.032859801
0.031013364
0.029338404
0.027370903
0.024956155
0.022273144
0.019485144
0.016766785
0.01422854
0.011927837
0.0098872056
0.0081063209
0.0065685331
0.0052495196
0.0041232677
0.0031649114
0.0023518308
0.0016639448
0.0010836541
0.00059564564
0.00018664344
0.03802701
0.038438796
0.038849857
0.039100351
0.039413324
0.039880644
0.040175575
0.038980224
0.03566222
0.032856877
0.031008874
0.029332738
0.027364274
0.024948965
0.022265818
0.01947804
0.016760157
0.014222552
0.011922565
0.0098826649
0.0081024861
0.0065653525
0.0052469299
0.0041212029
0.0031633074
0.0023506275
0.001663087
0.0010830923
0.00059533543
0.00018654585
0.038021262
0.038432751
0.038843718
0.039094057
0.039406731
0.03987355
0.040168813
0.038977266
0.035661594
0.032854054
0.031004439
0.029327108
0.027357676
0.02494181
0.022258532
0.019470979
0.016753578
0.014216614
0.011917344
0.009878175
0.0080986994
0.0065622155
0.0052443782
0.0041191701
0.0031617293
0.0023494441
0.0016622436
0.0010825398
0.00059503035
0.00018644984
0.038015426
0.038426634
0.038837532
0.039087739
0.039400128
0.039866459
0.040162073
0.038974359
0.035661051
0.03285134
0.031000067
0.029321518
0.02735112
0.024934705
0.022251304
0.019463986
0.01674707
0.014210749
0.011912196
0.0098737555
0.0080949781
0.0065591375
0.005241878
0.0041171806
0.0031601862
0.0023482877
0.0016614198
0.0010820003
0.00059473239
0.00018635603
0.038009519
0.038420457
0.038831307
0.039081396
0.039393511
0.039859364
0.040155347
0.038971487
0.035660554
0.032848718
0.030995749
0.02931597
0.027344607
0.024927656
0.022244142
0.019457065
0.016740641
0.014204965
0.011907126
0.0098694092
0.0080913232
0.0065561177
0.0052394271
0.0041152318
0.0031586755
0.002347156
0.0016606138
0.0010814725
0.00059444088
0.00018626425
0.038003555
0.038414231
0.038825047
0.039075028
0.039386878
0.039852264
0.040148634
0.038968659
0.035660097
0.032846177
0.030991477
0.029310465
0.027338134
0.024920656
0.02223704
0.019450214
0.016734286
0.014199257
0.011902132
0.0098651341
0.0080877337
0.006553156
0.0052370265
0.0041133248
0.0031571983
0.0023460501
0.0016598265
0.0010809571
0.00059415624
0.00018617461
0.037997541
0.038407961
0.038818756
0.039068637
0.039380228
0.039845157
0.040141928
0.038965876
0.035659715
0.032843721
0.030987255
0.029304996
0.027331699
0.024913703
0.022229996
0.019443427
0.016728
0.014193619
0.011897206
0.0098609242
0.0080842039
0.0065502472
0.0052346714
0.0041114559
0.0031557519
0.002344968
0.0016590564
0.0010804532
0.00059387797
0.00018608699
0.037991487
0.038401655
0.038812437
0.039062225
0.039373564
0.039838045
0.04013522
0.038963118
0.035659368
0.032841343
0.030983076
0.029299558
0.027325303
0.024906792
0.022223001
0.019436697
0.016721774
0.014188043
0.011892342
0.0098567721
0.0080807276
0.0065473864
0.0052323581
0.0041096223
0.0031543343
0.0023439082
0.0016583027
0.0010799601
0.00059360578
0.00018600128
0.037985393
0.038395317
0.038806093
0.039055793
0.039366885
0.039830926
0.040128513
0.038960385
0.03565907
0.032839038
0.030978945
0.029294155
0.027318937
0.024899916
0.022216051
0.019430018
0.016715603
0.014182521
0.011887529
0.0098526678
0.0080772941
0.0065445628
0.0052300763
0.0041078146
0.0031529371
0.0023428641
0.0016575604
0.0010794746
0.00059333777
0.00018591688
0.037979267
0.038388949
0.038799726
0.039049343
0.039360192
0.039823803
0.040121812
0.038957694
0.035658838
0.032836793
0.030974852
0.02928878
0.027312601
0.024893072
0.022209138
0.01942338
0.016709474
0.014177043
0.011882759
0.009848603
0.0080738963
0.0065417707
0.0052278217
0.0041060295
0.0031515582
0.002341834
0.0016568283
0.0010789958
0.00059307347
0.00018583366
0.037973113
0.038382555
0.038793338
0.039042875
0.03935348
0.039816674
0.040115117
0.038955025
0.035658648
0.032834612
0.030970792
0.029283431
0.027306288
0.024886254
0.022202256
0.019416777
0.016703384
0.014171602
0.011878025
0.0098445715
0.0080705283
0.0065390045
0.0052255889
0.0041042624
0.0031501935
0.0023408149
0.0016561041
0.0010785223
0.00059281208
0.00018575135
0.037966932
0.038376137
0.038786927
0.039036392
0.039346755
0.039809533
0.040108428
0.038952372
0.035658548
0.032832476
0.030966774
0.029278106
0.027299995
0.024879459
0.022195402
0.019410205
0.016697325
0.014166195
0.011873323
0.0098405703
0.0080671882
0.0065362634
0.0052233781
0.0041025137
0.0031488439
0.0023398074
0.0016553884
0.0010780544
0.00059255384
0.00018567003
0.037960727
0.038369696
0.038780498
0.039029893
0.039340019
0.039802375
0.040101744
0.038949752
0.035658522
0.032830376
0.030962785
0.02927281
0.02729372
0.024872683
0.022188571
0.019403659
0.016691296
0.014160817
0.011868648
0.009836595
0.0080638711
0.0065335419
0.0052211836
0.0041007783
0.0031475048
0.0023388079
0.0016546784
0.0010775904
0.00059229772
0.00018558937
0.0379545
0.038363234
0.038774051
0.039023379
0.039333271
0.039795209
0.040095058
0.038947156
0.035658551
0.032828337
0.030958841
0.029267534
0.027287459
0.024865923
0.022181758
0.019397135
0.016685289
0.014155462
0.011863996
0.0098326406
0.0080605735
0.0065308381
0.0052190047
0.0040990563
0.0031461766
0.0023378169
0.0016539748
0.0010771304
0.00059204392
0.00018550945
0.03794825
0.038356748
0.038767583
0.039016851
0.039326511
0.039788038
0.040088369
0.038944572
0.035658666
0.032826347
0.030954925
0.029262275
0.027281212
0.024859176
0.022174961
0.019390628
0.0166793
0.014150127
0.011859363
0.0098287034
0.0080572912
0.0065281477
0.0052168372
0.0040973437
0.0031448559
0.0023368318
0.0016532753
0.0010766734
0.00059179171
0.00018543002
0.03794198
0.038350244
0.038761097
0.03901031
0.03931974
0.039780862
0.04008168
0.03894201
0.035658835
0.032824397
0.030951042
0.029257041
0.027274977
0.024852443
0.022168178
0.019384137
0.016673328
0.014144808
0.011854746
0.0098247828
0.0080540243
0.0065254715
0.0052146825
0.0040956421
0.0031435445
0.002335854
0.0016525813
0.0010762199
0.00059154151
0.00018535123
0.037935691
0.038343721
0.038754595
0.039003754
0.039312958
0.039773681
0.040074996
0.038939477
0.035659063
0.032822507
0.030947193
0.029251824
0.027268755
0.024845721
0.022161409
0.019377661
0.016667371
0.014139506
0.011850146
0.0098208772
0.0080507704
0.0065228062
0.0052125367
0.0040939477
0.0031422386
0.0023348804
0.0016518903
0.0010757685
0.00059129243
0.00018527279
0.037929382
0.03833718
0.038748079
0.038997178
0.039306166
0.039766496
0.040068317
0.038936957
0.035659375
0.032820669
0.030943377
0.029246623
0.027262548
0.02483901
0.02215465
0.019371194
0.016661426
0.014134216
0.011845558
0.0098169841
0.0080475288
0.0065201526
0.0052104015
0.0040922624
0.0031409403
0.0023339127
0.0016512037
0.00107532
0.00059104494
0.00018519486
0.037923054
0.038330622
0.038741548
0.038990591
0.039299364
0.039759305
0.040061642
0.038934451
0.03565973
0.032818873
0.030939597
0.029241444
0.027256351
0.024832307
0.022147898
0.019364737
0.01665549
0.014128935
0.01184098
0.0098131005
0.008044296
0.0065175069
0.0052082732
0.004090583
0.0031396467
0.0023329486
0.0016505197
0.0010748732
0.00059079847
0.00018511724
0.037916709
0.038324046
0.038735003
0.038983989
0.03929255
0.03975211
0.040054965
0.038931974
0.035660161
0.032817133
0.030935843
0.029236284
0.027250163
0.02482561
0.022141153
0.019358285
0.016649561
0.014123661
0.011836408
0.0098092227
0.0080410693
0.0065148677
0.0052061511
0.0040889095
0.0031383584
0.0023319889
0.0016498391
0.0010744287
0.00059055326
0.00018504001
0.03791034
0.038317454
0.038728444
0.038977371
0.039285726
0.03974491
0.040048279
0.038929511
0.035660652
0.032815447
0.030932126
0.029231139
0.027243984
0.024818917
0.022134414
0.019351838
0.016643638
0.014118392
0.01183184
0.0098053494
0.008037846
0.0065122308
0.0052040307
0.004087237
0.0031370708
0.0023310298
0.0016491589
0.0010739845
0.00059030822
0.00018496284
0.037903953
0.038310846
0.038721871
0.038970741
0.039278889
0.039737704
0.040041591
0.038927058
0.035661194
0.032813805
0.030928435
0.029226013
0.027237812
0.024812229
0.022127679
0.019345397
0.016637719
0.014113127
0.011827278
0.0098014805
0.0080346272
0.0065095984
0.0052019145
0.0040855684
0.0031357864
0.0023300733
0.0016484805
0.0010735416
0.0005900639
0.00018488589
0.037897548
0.038304221
0.038715285
0.038964099
0.039272034
0.039730493
0.040034908
0.038924634
0.035661819
0.032812219
0.030924788
0.029220906
0.027231649
0.024805547
0.02212095
0.01933896
0.016631807
0.014107868
0.01182272
0.0097976164
0.0080314126
0.0065069697
0.0051998012
0.004083902
0.0031345038
0.002329118
0.0016478031
0.0010730993
0.0005898199
0.00018480904
0.037891125
0.038297577
0.038708685
0.038957444
0.039265168
0.039723276
0.040028228
0.038922227
0.03566249
0.032810689
0.030921167
0.029215814
0.027225493
0.024798869
0.022114223
0.01933253
0.016625898
0.014102612
0.011818166
0.0097937552
0.0080282012
0.0065043444
0.0051976916
0.0040822393
0.0031332245
0.0023281655
0.0016471278
0.0010726584
0.00058957671
0.00018473244
0.037884686
0.038290912
0.038702071
0.038950776
0.039258291
0.039716039
0.040021551
0.038919828
0.03566323
0.032809201
0.030917579
0.029210738
0.027219343
0.024792194
0.0221075
0.019326103
0.016619993
0.01409736
0.011813614
0.0097898961
0.0080249908
0.0065017193
0.0051955815
0.0040805757
0.0031319442
0.0023272122
0.0016464519
0.001072217
0.00058933324
0.00018465575
0.037878229
0.038284232
0.038695444
0.038944097
0.039251403
0.039708788
0.040014876
0.038917452
0.035664035
0.03280777
0.03091402
0.029205685
0.027213203
0.024785522
0.02210078
0.019319678
0.016614091
0.01409211
0.011809065
0.0097860395
0.0080217831
0.0064990968
0.0051934739
0.0040789145
0.003130666
0.0023262604
0.0016457772
0.0010717764
0.00058909019
0.00018457918
0.037871755
0.038277536
0.038688803
0.038937405
0.039244505
0.039701532
0.040008191
0.038915099
0.03566489
0.032806396
0.0309105
0.029200646
0.027207074
0.024778856
0.022094063
0.019313257
0.016608193
0.014086864
0.01180452
0.0097821865
0.0080185783
0.0064964764
0.0051913678
0.0040772541
0.0031293882
0.0023253089
0.0016451025
0.0010713358
0.00058884716
0.00018450262
0.037865264
0.038270824
0.038682149
0.0389307
0.039237597
0.039694271
0.040001503
0.038912757
0.035665826
0.032805064
0.03090701
0.029195624
0.027200954
0.024772195
0.022087349
0.019306839
0.016602297
0.014081621
0.011799977
0.0097783355
0.0080153758
0.0064938588
0.0051892647
0.0040755967
0.0031281131
0.0023243596
0.0016444296
0.0010708964
0.00058860477
0.00018442626
0.037858756
0.038264095
0.03867548
0.038923983
0.039230678
0.039687005
0.039994818
0.038910432
0.035666808
0.032803789
0.03090355
0.02919062
0.027194841
0.024765537
0.022080636
0.019300423
0.016596404
0.01407638
0.011795436
0.0097744866
0.0080121742
0.0064912411
0.0051871607
0.004073938
0.0031268367
0.0023234091
0.0016437556
0.0010704563
0.00058836199
0.00018434977
0.03785223
0.03825735
0.038668798
0.038917254
0.039223748
0.039679732
0.039988135
0.038908131
0.03566786
0.03280257
0.030900121
0.029185629
0.027188733
0.024758885
0.022073925
0.019294007
0.016590511
0.014071139
0.011790896
0.0097706386
0.008008974
0.0064886254
0.0051850591
0.0040722817
0.0031255625
0.0023224604
0.0016430831
0.0010700172
0.00058811972
0.00018427345
0.037845688
0.038250589
0.038662102
0.038910511
0.039216803
0.039672453
0.039981455
0.038905841
0.035668974
0.03280139
0.030896724
0.029180652
0.027182629
0.024752233
0.022067216
0.019287592
0.016584618
0.014065899
0.011786356
0.0097667911
0.0080057738
0.0064860095
0.005182957
0.0040706251
0.0031242878
0.0023215114
0.0016424103
0.0010695778
0.00058787735
0.00018419708
0.037839129
0.038243811
0.038655393
0.038903756
0.039209844
0.039665169
0.039974779
0.038903563
0.035670138
0.032800269
0.030893361
0.029175697
0.02717653
0.024745584
0.02206051
0.019281179
0.016578728
0.01406066
0.011781818
0.0097629456
0.0080025764
0.0064833966
0.0051808584
0.0040689717
0.0031230163
0.002320565
0.0016417396
0.0010691399
0.00058763575
0.00018412095
0.037832553
0.038237017
0.038648669
0.038896988
0.039202875
0.03965788
0.039968095
0.038901315
0.035671384
0.032799205
0.030890026
0.029170754
0.027170437
0.024738937
0.022053808
0.019274769
0.016572842
0.014055427
0.011777286
0.0097591047
0.0079993827
0.0064807857
0.0051787605
0.0040673184
0.0031217444
0.0023196181
0.0016410683
0.0010687015
0.00058739394
0.00018404476
0.037825959
0.038230206
0.038641931
0.038890207
0.039195896
0.039650586
0.039961406
0.038899081
0.035672674
0.032798177
0.030886724
0.029165828
0.027164349
0.024732292
0.022047108
0.019268363
0.016566957
0.014050196
0.011772755
0.0097552658
0.0079961915
0.0064781778
0.0051766658
0.0040656682
0.0031204751
0.0023186733
0.0016403986
0.0010682643
0.00058715269
0.00018396874
0.037819349
0.038223379
0.038635179
0.038883414
0.039188905
0.039643287
0.039954722
0.03889686
0.035674039
0.032797214
0.030883452
0.029160916
0.027158271
0.024725649
0.02204041
0.019261958
0.016561074
0.014044966
0.011768225
0.0097514283
0.0079930011
0.0064755702
0.0051745711
0.0040640176
0.0031192054
0.0023177281
0.0016397286
0.0010678267
0.00058691132
0.00018389268
0.037812717
0.038216534
0.038628413
0.038876607
0.039181904
0.039635984
0.039948043
0.038894666
0.035675461
0.032796302
0.030880215
0.029156016
0.0271522
0.024719005
0.022033712
0.019255553
0.016555192
0.014039736
0.011763697
0.0097475924
0.0079898131
0.0064729658
0.0051724801
0.0040623709
0.0031179393
0.002316786
0.001639061
0.0010673909
0.00058667087
0.00018381691
0.037806069
0.038209673
0.038621631
0.038869787
0.039174891
0.039628664
0.039941368
0.038892487
0.035676939
0.032795428
0.030877004
0.029151131
0.027146133
0.024712362
0.022027015
0.01924915
0.016549312
0.01403451
0.011759171
0.0097437585
0.0079866263
0.0064703615
0.0051703885
0.0040607232
0.0031166722
0.0023158429
0.0016383926
0.0010669545
0.00058643013
0.00018374105
0.037799403
0.038202794
0.03861483
0.038862954
0.039167867
0.039621326
0.039934695
0.03889032
0.035678491
0.032794615
0.030873821
0.029146261
0.027140067
0.024705721
0.022020315
0.019242744
0.016543428
0.01402928
0.011754643
0.0097399227
0.0079834386
0.0064677573
0.0051682976
0.0040590766
0.0031154062
0.0023149008
0.001637725
0.0010665186
0.00058618968
0.00018366528
0.037792719
0.038195897
0.038608015
0.038856107
0.039160831
0.039613981
0.039928017
0.038888177
0.035680087
0.032793847
0.030870668
0.0291414
0.027134001
0.024699078
0.022013614
0.019236337
0.016537544
0.01402405
0.011750114
0.0097360863
0.00798025
0.0064651522
0.0051662055
0.0040574287
0.003114139
0.0023139578
0.0016370567
0.0010660822
0.00058594891
0.0001835894
0.037786017
0.038188983
0.038601185
0.038849246
0.039153785
0.039606631
0.039921332
0.038886053
0.035681761
0.032793124
0.030867548
0.029136555
0.027127939
0.024692438
0.022006912
0.01922993
0.016531661
0.014018822
0.011745586
0.0097322509
0.0079770632
0.00646255
0.0051641166
0.0040557844
0.0031128752
0.0023130176
0.0016363905
0.0010656474
0.00058570901
0.00018351378
0.037779297
0.038182047
0.038594334
0.038842372
0.039146728
0.039599276
0.039914653
0.038883943
0.035683483
0.032792463
0.030864455
0.029131721
0.027121879
0.024685801
0.022000212
0.019223529
0.016525783
0.014013599
0.011741063
0.0097284189
0.0079738784
0.0064599484
0.0051620274
0.004054139
0.0031116101
0.0023120763
0.0016357235
0.0010652119
0.00058546875
0.00018343806
0.037772559
0.038175094
0.038587465
0.038835479
0.039139657
0.039591917
0.039907981
0.038881858
0.035685278
0.032791842
0.030861392
0.029126897
0.027115821
0.024679163
0.021993512
0.019217128
0.016519905
0.014008377
0.011736541
0.009724588
0.0079706952
0.0064573488
0.0051599405
0.0040524957
0.003110347
0.0023111366
0.0016350576
0.0010647772
0.00058522893
0.00018336248
0.037765804
0.038168124
0.038580581
0.03882857
0.039132567
0.039584555
0.039901318
0.038879797
0.035687133
0.032791275
0.03085836
0.02912209
0.027109771
0.024672524
0.021986811
0.019210727
0.016514029
0.014003156
0.011732021
0.0097207594
0.007967514
0.0064547506
0.0051578545
0.0040508529
0.003109084
0.0023101968
0.0016343917
0.0010643424
0.00058498905
0.00018328687
0.03775903
0.038161135
0.038573681
0.038821644
0.039125465
0.039577187
0.039894658
0.038877748
0.035689042
0.032790764
0.030855355
0.029117292
0.027103724
0.024665881
0.021980109
0.019204324
0.016508152
0.013997934
0.0117275
0.0097169303
0.0079643332
0.006452154
0.0051557708
0.0040492127
0.0031078236
0.0023092594
0.0016337276
0.0010639088
0.00058474987
0.00018321148
0.037752238
0.038154128
0.038566765
0.038814701
0.039118351
0.039569813
0.039887993
0.038875719
0.035691025
0.032790284
0.030852377
0.029112502
0.027097675
0.024659234
0.021973406
0.019197919
0.016502275
0.013992713
0.01172298
0.009713102
0.0079611525
0.0064495566
0.0051536857
0.0040475709
0.0031065617
0.0023083205
0.0016330624
0.0010634746
0.00058451026
0.00018313595
0.037745428
0.038147104
0.038559832
0.038807744
0.039111225
0.039562433
0.039881319
0.038873713
0.035693054
0.032789871
0.030849423
0.029107723
0.027091625
0.024652584
0.0219667
0.019191511
0.016496395
0.013987489
0.011718459
0.0097092726
0.0079579719
0.0064469603
0.0051516024
0.0040459313
0.0031053018
0.0023073833
0.0016323985
0.0010630412
0.00058427116
0.00018306058
0.0377386
0.038140061
0.038552884
0.038800772
0.039104089
0.039555049
0.039874651
0.038871723
0.035695161
0.032789506
0.030846502
0.029102952
0.027085574
0.024645931
0.021959994
0.019185102
0.016490515
0.013982265
0.011713938
0.0097054436
0.0079547915
0.0064443638
0.0051495186
0.0040442911
0.0031040413
0.0023064456
0.0016317341
0.0010626074
0.00058403186
0.00018298514
0.037731753
0.038133
0.03854592
0.038793787
0.039096941
0.039547659
0.039867992
0.038869757
0.035697318
0.032789183
0.030843604
0.029098189
0.027079521
0.024639279
0.021953287
0.019178693
0.016484635
0.013977041
0.011709417
0.0097016145
0.0079516118
0.0064417682
0.0051474364
0.0040426528
0.0031027827
0.0023055096
0.0016310711
0.0010621747
0.0005837931
0.00018290987
0.037724882
0.038125921
0.038538939
0.038786787
0.039089781
0.039540252
0.039861341
0.038867815
0.035699549
0.032788926
0.030840738
0.029093441
0.027073468
0.024632625
0.021946579
0.019172286
0.016478757
0.013971821
0.0117049
0.0096977897
0.0079484348
0.0064391742
0.0051453547
0.0040410143
0.0031015236
0.0023045732
0.0016304076
0.0010617416
0.00058355414
0.00018283454
0.037717994
0.038118824
0.038531942
0.038779772
0.039082603
0.039532829
0.039854696
0.038865889
0.035701834
0.032788708
0.030837889
0.029088697
0.027067417
0.024625971
0.021939867
0.019165877
0.016472878
0.013966599
0.011700382
0.0096939644
0.0079452577
0.0064365808
0.0051432741
0.0040393772
0.0031002658
0.0023036378
0.001629745
0.001061309
0.0005833155
0.00018275931
0.037711088
0.038111701
0.038524928
0.038772742
0.039075412
0.039525399
0.039848048
0.038863983
0.035704186
0.032788545
0.030835074
0.029083962
0.027061366
0.024619312
0.02193315
0.019159464
0.016466996
0.013961377
0.011695864
0.0096901396
0.0079420811
0.0064339877
0.0051411935
0.0040377399
0.0030990078
0.0023027021
0.0016290821
0.0010608763
0.00058307675
0.00018268403
0.037704163
0.038104562
0.038517898
0.038765697
0.039068207
0.039517962
0.039841386
0.0388621
0.035706602
0.032788443
0.030832276
0.029079231
0.027055314
0.024612647
0.021926429
0.019153048
0.016461112
0.013956152
0.011691345
0.0096863149
0.0079389057
0.0064313969
0.0051391159
0.0040361057
0.0030977528
0.0023017691
0.0016284213
0.001060445
0.00058283878
0.00018260901
0.037697221
0.038097404
0.03851085
0.038758636
0.039060989
0.039510518
0.039834729
0.038860234
0.035709072
0.032788378
0.030829504
0.029074502
0.027049258
0.024605977
0.021919704
0.019146631
0.016455228
0.013950929
0.011686827
0.0096824918
0.0079357316
0.0064288066
0.0051370383
0.0040344713
0.0030964973
0.0023008356
0.0016277601
0.0010600134
0.00058260067
0.00018253393
0.037690261
0.038090229
0.038503786
0.03875156
0.039053758
0.039503068
0.039828079
0.038858387
0.035711619
0.032788384
0.030826752
0.029069788
0.027043196
0.024599301
0.021912974
0.019140209
0.016449339
0.013945701
0.011682305
0.0096786646
0.0079325543
0.0064262143
0.0051349597
0.0040328365
0.0030952419
0.0022999024
0.0016270992
0.0010595821
0.00058236268
0.0001824589
0.037683282
0.038083036
0.038496705
0.038744469
0.039046514
0.039495611
0.039821434
0.038856563
0.035714216
0.032788433
0.030824027
0.029065075
0.027037131
0.024592619
0.02190624
0.019133787
0.016443449
0.013940472
0.011677782
0.0096748367
0.0079293759
0.0064236206
0.0051328798
0.0040312001
0.0030939852
0.002298968
0.0016264373
0.0010591501
0.00058212431
0.00018238374
0.037676287
0.038075825
0.038489607
0.038737362
0.039039257
0.039488148
0.039814795
0.038854758
0.035716889
0.032788535
0.030821328
0.029060373
0.027031063
0.024585934
0.021899507
0.019127363
0.016437557
0.013935243
0.01167326
0.0096710093
0.0079261985
0.0064210284
0.0051308018
0.0040295658
0.0030927305
0.0022980352
0.0016257768
0.001058719
0.00058188645
0.00018230874
0.037669274
0.038068596
0.038482493
0.03873024
0.039031987
0.039480678
0.039808154
0.038852972
0.035719616
0.032788705
0.030818648
0.029055676
0.027024995
0.024579247
0.021892773
0.019120941
0.016431669
0.013930018
0.011668742
0.0096671869
0.0079230253
0.0064184395
0.0051287259
0.0040279329
0.0030914765
0.0022971029
0.0016251164
0.001058288
0.00058164864
0.00018223375
0.037662243
0.03806135
0.038475361
0.038723101
0.039024702
0.039473198
0.039801494
0.038851206
0.035722412
0.032788907
0.030816
0.02905098
0.027018928
0.024572554
0.021886034
0.019114512
0.016425778
0.013924789
0.011664221
0.0096633623
0.0079198506
0.0064158503
0.0051266504
0.0040263009
0.0030902235
0.0022961716
0.0016244567
0.0010578575
0.00058141113
0.00018215886
0.037655196
0.038054087
0.038468213
0.038715947
0.039017404
0.03946571
0.039794835
0.038849453
0.035725261
0.032789179
0.030813372
0.029046297
0.027012857
0.024565858
0.02187929
0.019108079
0.016419882
0.013919556
0.011659697
0.0096595356
0.0079166739
0.0064132593
0.0051245732
0.0040246673
0.0030889691
0.0022952391
0.0016237963
0.0010574266
0.00058117327
0.00018208386
0.037648131
0.038046807
0.038461048
0.038708777
0.039010092
0.039458211
0.039788181
0.038847718
0.03572818
0.032789494
0.030810776
0.029041618
0.027006782
0.024559157
0.021872541
0.019101643
0.016413985
0.013914324
0.011655171
0.0096557076
0.0079134967
0.0064106688
0.0051224972
0.0040230355
0.0030877167
0.0022943085
0.0016231372
0.0010569966
0.000580936
0.00018200903
0.03764105
0.038039511
0.038453867
0.038701591
0.039002757
0.03945068
0.03978153
0.038846007
0.035731157
0.032789857
0.030808209
0.029036953
0.027000705
0.024552453
0.02186579
0.019095207
0.016408092
0.013909097
0.01165065
0.0096518838
0.0079103227
0.0064080803
0.0051204223
0.0040214041
0.0030864641
0.0022933776
0.0016224779
0.0010565664
0.00058069859
0.00018193417
0.037633952
0.038032197
0.038446664
0.038694388
0.038995405
0.039443139
0.039774881
0.038844307
0.035734199
0.032790283
0.030805677
0.029032292
0.026994622
0.024545743
0.021859035
0.019088769
0.016402196
0.013903866
0.011646126
0.0096480576
0.0079071476
0.0064054911
0.0051183473
0.004019773
0.0030852121
0.0022924472
0.0016218191
0.0010561366
0.00058046138
0.00018185938
0.037626836
0.038024867
0.038439444
0.038687169
0.038988037
0.039435588
0.039768223
0.038842622
0.035737301
0.032790736
0.030803178
0.029027633
0.026988535
0.024539026
0.021852275
0.01908233
0.016396299
0.013898636
0.011641604
0.0096442323
0.0079039735
0.0064029023
0.0051162723
0.0040181416
0.0030839598
0.0022915165
0.00162116
0.0010557065
0.00058022402
0.00018178453
0.037619703
0.03801752
0.038432208
0.038679934
0.038980654
0.039428026
0.039761546
0.038840957
0.035740462
0.032791256
0.030800708
0.029022989
0.026982448
0.024532302
0.02184551
0.019075887
0.0163904
0.013893404
0.011637082
0.0096404068
0.0079007999
0.0064003147
0.0051141992
0.0040165125
0.0030827096
0.0022905877
0.0016205025
0.0010552775
0.00057998727
0.00018170989
0.037612553
0.038010157
0.038424954
0.038672676
0.038973255
0.039420452
0.039754868
0.038839301
0.035743688
0.032791806
0.030798282
0.029018347
0.026976362
0.024525574
0.021838741
0.019069443
0.016384502
0.013888175
0.011632562
0.0096365848
0.0078976291
0.0063977288
0.0051121268
0.0040148834
0.0030814591
0.0022896584
0.0016198445
0.0010548481
0.00057975032
0.00018163517
0.037605387
0.038002777
0.038417676
0.038665398
0.038965841
0.039412867
0.039748188
0.038837658
0.035746965
0.032792404
0.030795882
0.029013714
0.02697027
0.02451884
0.021831966
0.019062992
0.016378597
0.013882941
0.011628038
0.0096327588
0.0078944556
0.0063951415
0.0051100541
0.0040132546
0.0030802093
0.0022887299
0.0016191871
0.0010544193
0.00057951367
0.00018156055
0.037598206
0.037995378
0.038410382
0.0386581
0.038958412
0.03940527
0.039741507
0.038836031
0.035750312
0.032793066
0.030793505
0.029009082
0.026964171
0.0245121
0.021825189
0.019056537
0.01637269
0.013877704
0.011623514
0.0096289322
0.0078912814
0.0063925535
0.0051079806
0.004011625
0.0030789586
0.0022878006
0.0016185292
0.00105399
0.00057927677
0.00018148585
0.037591008
0.037987964
0.03840307
0.038650785
0.03895096
0.039397662
0.039734825
0.038834413
0.035753709
0.032793767
0.030791154
0.029004452
0.026958067
0.024505358
0.021818407
0.019050082
0.016366781
0.013872466
0.011618989
0.0096251043
0.0078881067
0.0063899655
0.0051059077
0.0040099964
0.0030777092
0.0022868726
0.0016178723
0.0010535614
0.00057904029
0.00018141127
0.037583796
0.037980534
0.038395742
0.038643453
0.038943491
0.039390041
0.039728126
0.038832808
0.035757174
0.032794542
0.030788826
0.028999835
0.026951956
0.024498609
0.021811623
0.019043626
0.016360873
0.013867231
0.011614467
0.0096212805
0.0078849352
0.0063873801
0.005103836
0.0040083683
0.0030764597
0.0022859443
0.0016172152
0.0010531326
0.00057880368
0.00018133664
0.037576568
0.037973088
0.038388398
0.038636105
0.038936006
0.039382408
0.039721408
0.038831213
0.035760686
0.032795352
0.030786523
0.028995218
0.026945839
0.024491851
0.021804831
0.019037163
0.016354959
0.013861992
0.011609942
0.0096174541
0.0078817623
0.0063847946
0.0051017648
0.0040067411
0.0030752114
0.002285017
0.0016165589
0.0010527044
0.00057856742
0.00018126212
0.037569324
0.037965627
0.038381036
0.03862874
0.038928505
0.039374759
0.039714686
0.038829625
0.035764262
0.032796226
0.030784237
0.028990606
0.026939722
0.024485083
0.021798032
0.019030696
0.016349043
0.013856751
0.011605416
0.0096136278
0.0078785896
0.0063822092