/*--------------------------------*- C++ -*----------------------------------*\
| =========                 |                                                 |
| \\      /  F ield         | OpenFOAM: The Open Source CFD Toolbox           |
|  \\    /   O peration     | Version:  v2012                                 |
|   \\  /    A nd           | Website:  www.openfoam.com                      |
|    \\/     M anipulation  |                                                 |
\*---------------------------------------------------------------------------*/
FoamFile
{
    version     2.0;
    format      ascii;
    class       volScalarField;
    location    "250";
    object      nut;
}
// * * * * * * * * * * * * * * * * * * * * * * * * * * * * * * * * * * * * * //

dimensions      [0 2 -1 0 0 0 0];


internalField   nonuniform List<scalar> 
24000
(
4.3296555e-05
1.1498724e-05
1.6145795e-05
1.761632e-05
9.4485735e-06
5.1983772e-06
3.0050664e-06
1.998657e-06
2.0567167e-06
2.2523119e-06
2.0606685e-06
1.7537272e-06
9.8106635e-07
7.5782637e-07
5.2127577e-07
3.6005186e-07
2.3650153e-07
1.4303113e-07
6.9185635e-08
2.762897e-08
9.5561362e-09
2.9287751e-09
8.0511587e-10
1.9749007e-10
4.2142515e-11
7.4828392e-12
1.0973014e-12
2.3166199e-13
1.7663858e-13
1.8812912e-13
4.3305742e-05
1.1367586e-05
1.556893e-05
1.6464855e-05
8.9593844e-06
4.8724524e-06
2.8727735e-06
1.9640905e-06
2.0302934e-06
2.2337191e-06
2.0492763e-06
1.7691708e-06
9.8609072e-07
7.6157762e-07
5.2469824e-07
3.6411095e-07
2.4024785e-07
1.4595606e-07
7.0556527e-08
2.8199327e-08
9.7544976e-09
2.9898976e-09
8.2217876e-10
2.0176833e-10
4.3088654e-11
7.6734335e-12
1.1481054e-12
2.6524413e-13
2.1205729e-13
2.2581515e-13
4.3312915e-05
1.1414262e-05
1.5914199e-05
1.7343065e-05
9.4264875e-06
5.0952947e-06
2.9812057e-06
2.0030879e-06
2.0411499e-06
2.2328858e-06
2.0410154e-06
1.7755023e-06
9.8878247e-07
7.6578968e-07
5.2621396e-07
3.6519624e-07
2.4111283e-07
1.4666223e-07
7.1707618e-08
2.8778502e-08
9.9804828e-09
3.062676e-09
8.4243032e-10
2.0672057e-10
4.4131052e-11
7.8459394e-12
1.1597684e-12
2.5387822e-13
1.973902e-13
2.1015619e-13
4.3319795e-05
1.1431815e-05
1.6046202e-05
1.765464e-05
9.5709988e-06
5.1507559e-06
2.9984593e-06
2.0020272e-06
2.0347156e-06
2.2263399e-06
2.0332368e-06
1.7763814e-06
9.8874531e-07
7.6786612e-07
5.2707293e-07
3.6550044e-07
2.4110023e-07
1.4650158e-07
7.1373542e-08
2.8583988e-08
9.8972452e-09
3.0341873e-09
8.3417459e-10
2.0464698e-10
4.3686139e-11
7.7700834e-12
1.1527943e-12
2.5669424e-13
2.014214e-13
2.1448119e-13
4.3326431e-05
1.1464794e-05
1.6189973e-05
1.7934216e-05
9.6823874e-06
5.1866106e-06
3.0054433e-06
2.0011396e-06
2.0318086e-06
2.2242505e-06
2.0312889e-06
1.7758338e-06
9.8866193e-07
7.6780581e-07
5.2689058e-07
3.6540042e-07
2.4106371e-07
1.4650916e-07
7.1450408e-08
2.8625368e-08
9.9136133e-09
3.0394026e-09
8.3559564e-10
2.0498647e-10
4.3756024e-11
7.7813851e-12
1.1534779e-12
2.5587474e-13
2.0037642e-13
2.1336164e-13
4.3332828e-05
1.1493381e-05
1.6290783e-05
1.8106192e-05
9.7425868e-06
5.2039678e-06
3.0086774e-06
2.0000809e-06
2.0290762e-06
2.2221001e-06
2.0293294e-06
1.7746727e-06
9.8821505e-07
7.6775734e-07
5.2678247e-07
3.6528438e-07
2.4096137e-07
1.4642782e-07
7.1382372e-08
2.859096e-08
9.8997721e-09
3.0347712e-09
8.3426014e-10
2.0465039e-10
4.3683401e-11
7.768558e-12
1.1517994e-12
2.557406e-13
2.0037356e-13
2.1336241e-13
4.333899e-05
1.1517545e-05
1.6363689e-05
1.8221222e-05
9.7820684e-06
5.2164323e-06
3.0116743e-06
1.9994002e-06
2.0266533e-06
2.2203474e-06
2.027968e-06
1.7732832e-06
9.8766674e-07
7.6745996e-07
5.2659483e-07
3.6513129e-07
2.4084421e-07
1.4634673e-07
7.1329049e-08
2.8566356e-08
9.890402e-09
3.0317202e-09
8.3338965e-10
2.0443178e-10
4.3635973e-11
7.760005e-12
1.1505009e-12
2.5543378e-13
2.0012706e-13
2.1310063e-13
4.3344915e-05
1.1536838e-05
1.6414813e-05
1.8299848e-05
9.8107725e-06
5.2269408e-06
3.0146844e-06
1.9988015e-06
2.0243055e-06
2.2187137e-06
2.0267432e-06
1.7718185e-06
9.8707926e-07
7.671262e-07
5.2640381e-07
3.6497437e-07
2.4072111e-07
1.4625871e-07
7.1266211e-08
2.8536788e-08
9.8790326e-09
3.0280081e-09
8.3233191e-10
2.0416697e-10
4.3578777e-11
7.749785e-12
1.1490177e-12
2.5514605e-13
1.9992016e-13
2.1288122e-13
4.3350603e-05
1.1554619e-05
1.6451155e-05
1.8357736e-05
9.8344756e-06
5.2368106e-06
3.0179124e-06
1.9982661e-06
2.0220264e-06
2.2171578e-06
2.0256069e-06
1.7703449e-06
9.8648847e-07
7.6677003e-07
5.2620744e-07
3.6481478e-07
2.4059638e-07
1.4616982e-07
7.1202945e-08
2.8507151e-08
9.8676799e-09
3.0243124e-09
8.3128093e-10
2.0390426e-10
4.3522097e-11
7.7396612e-12
1.1475428e-12
2.5485253e-13
1.9970518e-13
2.1265286e-13
4.335609e-05
1.1568846e-05
1.647749e-05
1.840336e-05
9.8556251e-06
5.2464007e-06
3.0212037e-06
1.9977633e-06
2.0197926e-06
2.2156321e-06
2.0245036e-06
1.7688888e-06
9.8590738e-07
7.6641641e-07
5.2601442e-07
3.6465744e-07
2.4047288e-07
1.4608143e-07
7.1139482e-08
2.8477405e-08
9.8562947e-09
3.0206103e-09
8.3022962e-10
2.036418e-10
4.3465543e-11
7.7295746e-12
1.1460784e-12
2.5456497e-13
1.9949612e-13
2.1243069e-13
4.3361399e-05
1.1575585e-05
1.649721e-05
1.8441487e-05
9.8753064e-06
5.2558273e-06
3.0244871e-06
1.997283e-06
2.0175972e-06
2.2141176e-06
2.0234131e-06
1.7674587e-06
9.8534135e-07
7.660719e-07
5.2582675e-07
3.6450383e-07
2.4035188e-07
1.459946e-07
7.1076804e-08
2.8448023e-08
9.845054e-09
3.0169575e-09
8.2919281e-10
2.0338308e-10
4.3409815e-11
7.719639e-12
1.1446371e-12
2.5428267e-13
1.9929111e-13
2.1221274e-13
4.3366531e-05
1.1582676e-05
1.6512506e-05
1.8474759e-05
9.8939951e-06
5.2651216e-06
3.0277581e-06
1.996821e-06
2.0154354e-06
2.2126033e-06
2.0223231e-06
1.7660564e-06
9.8479176e-07
7.6574013e-07
5.2564585e-07
3.6435491e-07
2.4023402e-07
1.459097e-07
7.1015142e-08
2.8419094e-08
9.8339867e-09
3.0133621e-09
8.2817277e-10
2.0312864e-10
4.3355034e-11
7.7098767e-12
1.1432226e-12
2.5400691e-13
1.9909138e-13
2.1200034e-13
4.3371487e-05
1.1589822e-05
1.6524714e-05
1.8504686e-05
9.9119391e-06
5.2742954e-06
3.0310163e-06
1.9963685e-06
2.0133064e-06
2.2110846e-06
2.0212277e-06
1.7646805e-06
9.8425846e-07
7.6542227e-07
5.2547228e-07
3.6421111e-07
2.4011965e-07
1.4582701e-07
7.0954702e-08
2.8390711e-08
9.8231236e-09
3.009833e-09
8.2717144e-10
2.0287887e-10
4.3301251e-11
7.7002926e-12
1.1418347e-12
2.537372e-13
1.9889642e-13
2.1179298e-13
4.337627e-05
1.1596108e-05
1.6534687e-05
1.8532194e-05
9.9292987e-06
5.283357e-06
3.0342654e-06
1.9959246e-06
2.0112119e-06
2.2095595e-06
2.0201236e-06
1.7633282e-06
9.837405e-07
7.6511839e-07
5.2530626e-07
3.6407259e-07
2.4000888e-07
1.4574655e-07
7.0895483e-08
2.836286e-08
9.8124608e-09
3.0063689e-09
8.2618882e-10
2.0263383e-10
4.3248503e-11
7.6908959e-12
1.1404752e-12
2.5347392e-13
1.9870649e-13
2.1159093e-13
4.3380881e-05
1.1601752e-05
1.6543e-05
1.8557872e-05
9.946181e-06
5.2923108e-06
3.0375084e-06
1.9954878e-06
2.009154e-06
2.2080275e-06
2.0190092e-06
1.7619968e-06
9.8323683e-07
7.648278e-07
5.2514774e-07
3.6393942e-07
2.3990182e-07
1.4566847e-07
7.083759e-08
2.8335591e-08
9.8020126e-09
3.0029733e-09
8.2522538e-10
2.0239352e-10
4.3196765e-11
7.6816782e-12
1.1391422e-12
2.5321666e-13
1.9852129e-13
2.1139387e-13
4.3385325e-05
1.1606912e-05
1.6550028e-05
1.8582084e-05
9.9626594e-06
5.3011652e-06
3.040751e-06
1.9950571e-06
2.0071352e-06
2.2064885e-06
2.0178824e-06
1.7606836e-06
9.8274632e-07
7.6454982e-07
5.2499661e-07
3.6381156e-07
2.3979843e-07
1.4559274e-07
7.0781016e-08
2.8308897e-08
9.7917766e-09
2.9996456e-09
8.2428114e-10
2.02158e-10
4.3146062e-11
7.6726461e-12
1.1378368e-12
2.5296536e-13
1.9834062e-13
2.1120158e-13
4.3389607e-05
1.1611694e-05
1.6556031e-05
1.8605098e-05
9.9787908e-06
5.3099368e-06
3.0440017e-06
1.9946327e-06
2.0051588e-06
2.2049415e-06
2.0167399e-06
1.7593859e-06
9.8226786e-07
7.64284e-07
5.2485283e-07
3.6368895e-07
2.3969867e-07
1.4551934e-07
7.0725764e-08
2.8282783e-08
9.7817538e-09
2.9963857e-09
8.2335578e-10
2.0192714e-10
4.3096346e-11
7.6637879e-12
1.1365561e-12
2.527186e-13
1.9816312e-13
2.1101263e-13
4.339373e-05
1.1616168e-05
1.6561203e-05
1.8627151e-05
9.9946234e-06
5.3186391e-06
3.0472636e-06
1.9942129e-06
2.0032291e-06
2.2033864e-06
2.015579e-06
1.758101e-06
9.8180025e-07
7.640297e-07
5.2471628e-07
3.6357143e-07
2.3960234e-07
1.4544807e-07
7.0671674e-08
2.8257167e-08
9.7719137e-09
2.993184e-09
8.22447e-10
2.0170043e-10
4.3047534e-11
7.6550918e-12
1.1352987e-12
2.5247601e-13
1.9798841e-13
2.1082662e-13
4.3397699e-05
1.1620387e-05
1.6565685e-05
1.8648426e-05
1.0010201e-05
5.3272836e-06
3.0505377e-06
1.9938004e-06
2.0013361e-06
2.2018312e-06
2.0144022e-06
1.7568271e-06
9.8134263e-07
7.637861e-07
5.2458673e-07
3.6345891e-07
2.3950942e-07
1.4537894e-07
7.0618753e-08
2.8232049e-08
9.7622539e-09
2.990039e-09
8.2155382e-10
2.0147753e-10
4.2999528e-11
7.6465365e-12
1.1340611e-12
2.5223681e-13
1.9781594e-13
2.1064297e-13
4.340152e-05
1.1624393e-05
1.6569592e-05
1.8669041e-05
1.0025562e-05
5.3358795e-06
3.0538258e-06
1.9934098e-06
1.9994558e-06
2.2002813e-06
2.0132205e-06
1.7555623e-06
9.8089414e-07
7.6355267e-07
5.2446408e-07
3.6335135e-07
2.3941987e-07
1.4531191e-07
7.0566951e-08
2.8207403e-08
9.7527635e-09
2.9869471e-09
8.2067552e-10
2.0125831e-10
4.295231e-11
7.6381214e-12
1.1328434e-12
2.5200118e-13
1.9764588e-13
2.1046184e-13
4.3405198e-05
1.1628221e-05
1.6573007e-05
1.8689062e-05
1.0040747e-05
5.3444269e-06
3.0571288e-06
1.9930466e-06
1.997585e-06
2.1987355e-06
2.0120361e-06
1.7543049e-06
9.8045406e-07
7.6332905e-07
5.2434829e-07
3.6324874e-07
2.3933371e-07
1.4524701e-07
7.0516299e-08
2.8183247e-08
9.7434492e-09
2.9839102e-09
8.1981231e-10
2.0104277e-10
4.2905863e-11
7.6298399e-12
1.131644e-12
2.5176833e-13
1.9747748e-13
2.1028247e-13
4.3408738e-05
1.1631895e-05
1.6575995e-05
1.870858e-05
1.0055782e-05
5.3529305e-06
3.0604507e-06
1.9927141e-06
1.9957229e-06
2.1971925e-06
2.0108493e-06
1.7530534e-06
9.8002165e-07
7.6311478e-07
5.2423923e-07
3.6315096e-07
2.392508e-07
1.4518412e-07
7.0466692e-08
2.8159526e-08
9.7342912e-09
2.9809225e-09
8.1896298e-10
2.0083069e-10
4.286017e-11
7.6216935e-12
1.1304637e-12
2.5153847e-13
1.9731087e-13
2.1010498e-13
4.3412145e-05
1.1635432e-05
1.6578611e-05
1.8727681e-05
1.007068e-05
5.3614005e-06
3.0637947e-06
1.9924137e-06
1.9938693e-06
2.1956508e-06
2.0096602e-06
1.7518065e-06
9.7959636e-07
7.6290934e-07
5.2413676e-07
3.6305796e-07
2.3917115e-07
1.4512327e-07
7.0418164e-08
2.8136258e-08
9.7252946e-09
2.977985e-09
8.181274e-10
2.0062195e-10
4.2815179e-11
7.6136688e-12
1.1292999e-12
2.51311e-13
1.971456e-13
2.0992887e-13
4.3415426e-05
1.1638851e-05
1.6580877e-05
1.8746398e-05
1.0085455e-05
5.3698429e-06
3.067159e-06
1.9921445e-06
1.9920244e-06
2.1941094e-06
2.0084686e-06
1.7505631e-06
9.791777e-07
7.6271235e-07
5.2404079e-07
3.6296971e-07
2.3909473e-07
1.4506443e-07
7.0370676e-08
2.8113421e-08
9.7164515e-09
2.9750954e-09
8.1730516e-10
2.0041651e-10
4.2770894e-11
7.6057694e-12
1.1281535e-12
2.5108623e-13
1.9698193e-13
2.0975445e-13
4.3418586e-05
1.1642163e-05
1.6582808e-05
1.8764755e-05
1.0100126e-05
5.3782616e-06
3.0705431e-06
1.9919069e-06
1.9901893e-06
2.1925678e-06
2.0072739e-06
1.7493224e-06
9.7876534e-07
7.6252367e-07
5.239513e-07
3.6288622e-07
2.390216e-07
1.4500766e-07
7.0324277e-08
2.8091044e-08
9.7077721e-09
2.9722568e-09
8.1649691e-10
2.0021447e-10
4.2727322e-11
7.5979932e-12
1.1270236e-12
2.5086353e-13
1.9681923e-13
2.0958103e-13
4.342163e-05
1.1645371e-05
1.6584433e-05
1.8782799e-05
1.0114704e-05
5.3866572e-06
3.0739479e-06
1.9917009e-06
1.9883647e-06
2.1910262e-06
2.0060758e-06
1.7480835e-06
9.7835879e-07
7.6234291e-07
5.2386816e-07
3.6280737e-07
2.3895165e-07
1.4495287e-07
7.0278876e-08
2.8069075e-08
9.6992386e-09
2.9694639e-09
8.1570155e-10
2.0001566e-10
4.2684454e-11
7.5903432e-12
1.1259113e-12
2.5064329e-13
1.9665783e-13
2.0940897e-13
4.3424565e-05
1.1648478e-05
1.6585778e-05
1.8800611e-05
1.0129201e-05
5.3950325e-06
3.0773754e-06
1.9915265e-06
1.9865498e-06
2.1894843e-06
2.0048746e-06
1.7468458e-06
9.7795777e-07
7.6216963e-07
5.2379117e-07
3.6273309e-07
2.3888488e-07
1.4490011e-07
7.0234545e-08
2.8047554e-08
9.6908635e-09
2.9667199e-09
8.1491959e-10
1.998201e-10
4.2642267e-11
7.582811e-12
1.1248147e-12
2.5042501e-13
1.9649732e-13
2.0923784e-13
4.3427395e-05
1.1651488e-05
1.6586876e-05
1.8818259e-05
1.0143642e-05
5.4034005e-06
3.0808275e-06
1.9913841e-06
1.9847448e-06
2.1879408e-06
2.0036691e-06
1.7456084e-06
9.7756189e-07
7.6200367e-07
5.2372026e-07
3.6266327e-07
2.3882117e-07
1.4484928e-07
7.0191224e-08
2.8026452e-08
9.6826367e-09
2.964022e-09
8.1415039e-10
1.9962768e-10
4.2600756e-11
7.5753984e-12
1.1237344e-12
2.5020893e-13
1.9633793e-13
2.0906785e-13
4.3430127e-05
1.1654406e-05
1.6587744e-05
1.8835739e-05
1.0158037e-05
5.4117657e-06
3.0843023e-06
1.9912728e-06
1.9829503e-06
2.1863951e-06
2.0024583e-06
1.7443706e-06
9.771708e-07
7.6184509e-07
5.2365545e-07
3.6259788e-07
2.3876049e-07
1.4480037e-07
7.0148916e-08
2.8005777e-08
9.6745623e-09
2.9613716e-09
8.1339422e-10
1.9943844e-10
4.2559908e-11
7.5680999e-12
1.122669e-12
2.4999427e-13
1.9617886e-13
2.0889818e-13
4.3432767e-05
1.1657226e-05
1.6588378e-05
1.8853008e-05
1.0172376e-05
5.4201192e-06
3.0877975e-06
1.9911926e-06
1.9811658e-06
2.1848467e-06
2.0012416e-06
1.743132e-06
9.7678426e-07
7.6169358e-07
5.2359661e-07
3.6253682e-07
2.3870273e-07
1.4475325e-07
7.0107502e-08
2.7985466e-08
9.6666164e-09
2.9587613e-09
8.1264939e-10
1.9925204e-10
4.2519685e-11
7.5609142e-12
1.121619e-12
2.4978136e-13
1.9602044e-13
2.0872918e-13
4.3435319e-05
1.1659947e-05
1.6588787e-05
1.8870056e-05
1.0186652e-05
5.4284588e-06
3.0913136e-06
1.9911443e-06
1.9793911e-06
2.1832949e-06
2.0000194e-06
1.7418921e-06
9.7640222e-07
7.6154885e-07
5.2354364e-07
3.6248009e-07
2.3864795e-07
1.4470801e-07
7.0067069e-08
2.7965562e-08
9.6588148e-09
2.9561956e-09
8.1191674e-10
1.990686e-10
4.2480081e-11
7.5538351e-12
1.1205829e-12
2.4956982e-13
1.9586239e-13
2.0856057e-13
4.3437791e-05
1.1662573e-05
1.6588981e-05
1.8886933e-05
1.0200884e-05
5.4367897e-06
3.0948527e-06
1.9911281e-06
1.9776263e-06
2.1817398e-06
1.9987912e-06
1.7406507e-06
9.7602455e-07
7.614109e-07
5.2349651e-07
3.6242762e-07
2.3859608e-07
1.446646e-07
7.0027584e-08
2.794605e-08
9.6511512e-09
2.9536727e-09
8.1119595e-10
1.9888809e-10
4.2441104e-11
7.5468668e-12
1.1195618e-12
2.4936009e-13
1.9570511e-13
2.0839273e-13
4.3440185e-05
1.1665109e-05
1.6588963e-05
1.8903679e-05
1.0215091e-05
5.4451173e-06
3.0984177e-06
1.9911447e-06
1.9758708e-06
2.1801802e-06
1.9975553e-06
1.7394074e-06
9.7565106e-07
7.6127996e-07
5.2345534e-07
3.6237946e-07
2.3854712e-07
1.4462301e-07
6.9989063e-08
2.7926945e-08
9.6436338e-09
2.9511954e-09
8.104877e-10
1.9871062e-10
4.2402767e-11
7.5400083e-12
1.1185546e-12
2.4915142e-13
1.9554781e-13
2.0822486e-13
4.3442509e-05
1.1667557e-05
1.6588723e-05
1.8920269e-05
1.0229263e-05
5.4534348e-06
3.1020054e-06
1.9911941e-06
1.9741243e-06
2.1786153e-06
1.9963119e-06
1.7381616e-06
9.7528159e-07
7.6115583e-07
5.2342005e-07
3.6233553e-07
2.3850098e-07
1.4458313e-07
6.9951374e-08
2.7908176e-08
9.6362344e-09
2.948755e-09
8.097899e-10
1.985358e-10
4.2365011e-11
7.5332553e-12
1.1175618e-12
2.4894424e-13
1.9539095e-13
2.0805744e-13
4.3444768e-05
1.1669919e-05
1.6588251e-05
1.893667e-05
1.0243369e-05
5.4617294e-06
3.1056123e-06
1.9912757e-06
1.9723873e-06
2.1770455e-06
1.9950621e-06
1.7369136e-06
9.7491623e-07
7.6103823e-07
5.2339056e-07
3.6229587e-07
2.3845776e-07
1.4454507e-07
6.9914624e-08
2.7889795e-08
9.6289719e-09
2.9463568e-09
8.0910361e-10
1.9836376e-10
4.2327839e-11
7.5266023e-12
1.1165819e-12
2.4873817e-13
1.9523424e-13
2.0789017e-13
4.3446965e-05
1.1672196e-05
1.6587556e-05
1.8952893e-05
1.0257404e-05
5.4700084e-06
3.1092407e-06
1.9913913e-06
1.970661e-06
2.1754701e-06
1.9938043e-06
1.735663e-06
9.7455489e-07
7.6092717e-07
5.2336683e-07
3.6226041e-07
2.3841739e-07
1.4450878e-07
6.9878778e-08
2.7871781e-08
9.6218379e-09
2.9439982e-09
8.0842827e-10
1.9819442e-10
4.2291244e-11
7.5200516e-12
1.1156157e-12
2.4853369e-13
1.9507815e-13
2.0772352e-13
4.3449106e-05
1.1674391e-05
1.6586659e-05
1.8968971e-05
1.027139e-05
5.4782883e-06
3.1128926e-06
1.991539e-06
1.968944e-06
2.1738879e-06
1.9925374e-06
1.7344096e-06
9.7419741e-07
7.6082284e-07
5.2334896e-07
3.6222922e-07
2.3837991e-07
1.444743e-07
6.9843871e-08
2.7854162e-08
9.6148439e-09
2.941683e-09
8.0776478e-10
1.9802794e-10
4.2255245e-11
7.5136021e-12
1.1146623e-12
2.4833005e-13
1.9492193e-13
2.0755673e-13
4.3451197e-05
1.1676507e-05
1.658557e-05
1.8984909e-05
1.0285345e-05
5.4865732e-06
3.1165689e-06
1.991718e-06
1.9672349e-06
2.1722986e-06
1.9912618e-06
1.733153e-06
9.7384373e-07
7.6072506e-07
5.2333685e-07
3.6220218e-07
2.383452e-07
1.4444151e-07
6.9809782e-08
2.7836868e-08
9.6079635e-09
2.939403e-09
8.0711124e-10
1.9786398e-10
4.2219801e-11
7.5072538e-12
1.1137227e-12
2.4812793e-13
1.947662e-13
2.0739046e-13
4.345324e-05
1.1678543e-05
1.6584286e-05
1.9000693e-05
1.029927e-05
5.4948569e-06
3.1202681e-06
1.9919306e-06
1.965535e-06
2.1707016e-06
1.9899766e-06
1.7318933e-06
9.7349388e-07
7.6063371e-07
5.2333045e-07
3.6217932e-07
2.3831333e-07
1.4441048e-07
6.9776604e-08
2.7819951e-08
9.6012154e-09
2.9371638e-09
8.0646881e-10
1.9770271e-10
4.2184919e-11
7.5010017e-12
1.1127955e-12
2.4792685e-13
1.9461059e-13
2.0722428e-13
4.3455241e-05
1.16805e-05
1.6582795e-05
1.9016305e-05
1.0313158e-05
5.5031285e-06
3.1239864e-06
1.9921769e-06
1.9638446e-06
2.1690965e-06
1.9886814e-06
1.7306303e-06
9.7314779e-07
7.6054875e-07
5.2332975e-07
3.6216062e-07
2.3828427e-07
1.4438119e-07
6.97443e-08
2.7803389e-08
9.5945918e-09
2.934963e-09
8.0583703e-10
1.9754406e-10
4.2150603e-11
7.4948502e-12
1.111882e-12
2.4772747e-13
1.9445573e-13
2.0705886e-13
4.3457203e-05
1.1682377e-05
1.6581089e-05
1.9031724e-05
1.0326997e-05
5.5113773e-06
3.1277233e-06
1.9924582e-06
1.9621628e-06
2.1674825e-06
1.9873764e-06
1.7293639e-06
9.7280549e-07
7.6047045e-07
5.2333487e-07
3.621462e-07
2.3825813e-07
1.4435373e-07
6.9712947e-08
2.7787228e-08
9.5881115e-09
2.932807e-09
8.0521749e-10
1.9738838e-10
4.2116902e-11
7.4888033e-12
1.1109817e-12
2.4752907e-13
1.9430086e-13
2.0689343e-13
4.345913e-05
1.1684174e-05
1.657916e-05
1.9046935e-05
1.0340765e-05
5.5195953e-06
3.1314812e-06
1.9927753e-06
1.9604905e-06
2.1658595e-06
1.986061e-06
1.7280939e-06
9.7246686e-07
7.6039861e-07
5.2334571e-07
3.6213592e-07
2.3823478e-07
1.4432797e-07
6.9682414e-08
2.7771393e-08
9.5817449e-09
2.9306861e-09
8.0460793e-10
1.9723523e-10
4.2083762e-11
7.4828588e-12
1.1100955e-12
2.4733223e-13
1.941465e-13
2.0672854e-13
4.3461027e-05
1.168589e-05
1.6577e-05
1.9061927e-05
1.0354428e-05
5.5277775e-06
3.1352616e-06
1.9931289e-06
1.9588281e-06
2.1642275e-06
1.9847345e-06
1.7268201e-06
9.7213183e-07
7.60333e-07
5.2336216e-07
3.6212979e-07
2.3821426e-07
1.4430397e-07
6.9652797e-08
2.7755936e-08
9.5755108e-09
2.928606e-09
8.0400941e-10
1.9708473e-10
4.2051176e-11
7.4770088e-12
1.1092213e-12
2.4713636e-13
1.9399223e-13
2.0656371e-13
4.3462897e-05
1.1687527e-05
1.6574623e-05
1.9076711e-05
1.0367983e-05
5.5359384e-06
3.1390622e-06
1.993518e-06
1.9571752e-06
2.162585e-06
1.9833967e-06
1.7255422e-06
9.7180024e-07
7.6027347e-07
5.2338413e-07
3.6212774e-07
2.3819652e-07
1.4428172e-07
6.9624054e-08
2.7740833e-08
9.5693999e-09
2.9265637e-09
8.0342135e-10
1.9693682e-10
4.2019144e-11
7.4712573e-12
1.1083607e-12
2.4694226e-13
1.9383879e-13
2.0639975e-13
4.3464743e-05
1.1689085e-05
1.6572044e-05
1.9091296e-05
1.0381473e-05
5.5441058e-06
3.1428805e-06
1.9939395e-06
1.9555315e-06
2.1609313e-06
1.9820463e-06
1.72426e-06
9.71472e-07
7.6022022e-07
5.2341171e-07
3.6212983e-07
2.3818163e-07
1.4426125e-07
6.9596253e-08
2.7726128e-08
9.5634314e-09
2.9245657e-09
8.028454e-10
1.9679183e-10
4.1987719e-11
7.4656089e-12
1.107513e-12
2.467491e-13
1.9368533e-13
2.0623574e-13
4.3466568e-05
1.1690568e-05
1.6569269e-05
1.9105684e-05
1.0394918e-05
5.5522719e-06
3.1467164e-06
1.9943959e-06
1.9538981e-06
2.1592656e-06
1.9806821e-06
1.7229728e-06
9.7114691e-07
7.601731e-07
5.2344475e-07
3.6213589e-07
2.381694e-07
1.4424242e-07
6.9569237e-08
2.7711733e-08
9.5575703e-09
2.922601e-09
8.0227887e-10
1.9664923e-10
4.1956825e-11
7.4600577e-12
1.1066786e-12
2.4655731e-13
1.9353221e-13
2.0607209e-13
4.3468376e-05
1.1691983e-05
1.6566296e-05
1.9119851e-05
1.0408292e-05
5.5604021e-06
3.1505701e-06
1.9948893e-06
1.952275e-06
2.1575876e-06
1.9793042e-06
1.7216806e-06
9.7082493e-07
7.6013194e-07
5.2348322e-07
3.6214594e-07
2.381599e-07
1.4422529e-07
6.9543094e-08
2.7697699e-08
9.5518362e-09
2.9206753e-09
8.0172295e-10
1.9650919e-10
4.1926463e-11
7.454597e-12
1.1058557e-12
2.4636636e-13
1.9337907e-13
2.0590838e-13
4.3470169e-05
1.1693328e-05
1.6563115e-05
1.9133749e-05
1.0421569e-05
5.5684856e-06
3.1544404e-06
1.9954188e-06
1.9506611e-06
2.1558966e-06
1.9779122e-06
1.7203833e-06
9.7050609e-07
7.600967e-07
5.2352704e-07
3.6215993e-07
2.3815307e-07
1.4420982e-07
6.9517793e-08
2.7684007e-08
9.5462216e-09
2.9187863e-09
8.0117718e-10
1.9637165e-10
4.1896638e-11
7.4492318e-12
1.1050459e-12
2.4617711e-13
1.9322673e-13
2.057455e-13
4.3471951e-05
1.1694601e-05
1.6559699e-05
1.9147321e-05
1.0434726e-05
5.576525e-06
3.1583248e-06
1.9959857e-06
1.9490576e-06
2.1541914e-06
1.9765048e-06
1.7190808e-06
9.7019045e-07
7.600678e-07
5.2357641e-07
3.6217799e-07
2.3814901e-07
1.4419609e-07
6.9493404e-08
2.7670704e-08
9.5407469e-09
2.9169412e-09
8.0064345e-10
1.9623703e-10
4.1867419e-11
7.4439694e-12
1.1042489e-12
2.4598875e-13
1.9307431e-13
2.0558251e-13
4.3473723e-05
1.1695811e-05
1.6556029e-05
1.9160527e-05
1.0447722e-05
5.5845055e-06
3.1622188e-06
1.9965899e-06
1.9474657e-06
2.1524725e-06
1.9750826e-06
1.7177731e-06
9.69878e-07
7.6004502e-07
5.236312e-07
3.6219998e-07
2.3814758e-07
1.4418394e-07
6.9469765e-08
2.7657695e-08
9.5353738e-09
2.9151276e-09
8.0011863e-10
1.9610467e-10
4.1838706e-11
7.4388002e-12
1.1034649e-12
2.4580178e-13
1.9292231e-13
2.0541998e-13
4.3475488e-05
1.1696963e-05
1.6552118e-05
1.9173398e-05
1.0460549e-05
5.592422e-06
3.1661234e-06
1.9972312e-06
1.9458854e-06
2.1507399e-06
1.9736457e-06
1.7164602e-06
9.6956888e-07
7.6002816e-07
5.2369137e-07
3.6222594e-07
2.3814888e-07
1.441735e-07
6.9447009e-08
2.7645051e-08
9.5301292e-09
2.9133534e-09
7.9960456e-10
1.9597491e-10
4.1810534e-11
7.433723e-12
1.1026926e-12
2.4561579e-13
1.9277043e-13
2.0525755e-13
4.3477248e-05
1.1698058e-05
1.6547993e-05
1.9185997e-05
1.0473272e-05
5.6003205e-06
3.1700446e-06
1.9979075e-06
1.9443165e-06
2.1489919e-06
1.9721922e-06
1.7151419e-06
9.6926303e-07
7.600173e-07
5.2375686e-07
3.6225581e-07
2.3815284e-07
1.4416473e-07
6.942509e-08
2.7632745e-08
9.5250022e-09
2.9116154e-09
7.9910043e-10
1.9584759e-10
4.1782886e-11
7.428739e-12
1.101933e-12
2.4543138e-13
1.9261923e-13
2.0509583e-13
4.3479006e-05
1.1699097e-05
1.6543663e-05
1.9198349e-05
1.0485932e-05
5.6082204e-06
3.1739799e-06
1.9986167e-06
1.9427579e-06
2.147227e-06
1.9707208e-06
1.7138179e-06
9.6896045e-07
7.6001286e-07
5.2382789e-07
3.6228969e-07
2.3815952e-07
1.4415767e-07
6.9404055e-08
2.7620814e-08
9.5200095e-09
2.9099192e-09
7.9860782e-10
1.9572307e-10
4.1755818e-11
7.4238534e-12
1.1011856e-12
2.4524781e-13
1.9246794e-13
2.0493396e-13
4.3480764e-05
1.1700081e-05
1.6539128e-05
1.9210423e-05
1.0498479e-05
5.6160672e-06
3.1779213e-06
1.9993615e-06
1.9412104e-06
2.1454455e-06
1.9692325e-06
1.7124885e-06
9.6866126e-07
7.6001469e-07
5.2390435e-07
3.6232743e-07
2.3816877e-07
1.4415215e-07
6.938375e-08
2.7609168e-08
9.5151151e-09
2.9082535e-09
7.9812378e-10
1.9560072e-10
4.1729237e-11
7.4190573e-12
1.1004508e-12
2.4506564e-13
1.9231713e-13
2.0477262e-13
4.3482522e-05
1.170101e-05
1.6534382e-05
1.922216e-05
1.0510873e-05
5.623834e-06
3.1818642e-06
2.0001428e-06
1.9396756e-06
2.1436488e-06
1.9677279e-06
1.711154e-06
9.6836574e-07
7.6002283e-07
5.2398628e-07
3.6236914e-07
2.3818068e-07
1.4414829e-07
6.9364306e-08
2.7597879e-08
9.5103467e-09
2.9066266e-09
7.9765035e-10
1.9548093e-10
4.1703189e-11
7.4143523e-12
1.0997275e-12
2.448844e-13
1.9216637e-13
2.046113e-13
4.3484284e-05
1.1701884e-05
1.6529417e-05
1.9233517e-05
1.0523109e-05
5.6315313e-06
3.1858107e-06
2.0009595e-06
1.9381532e-06
2.1418368e-06
1.9662068e-06
1.7098146e-06
9.6807396e-07
7.6003742e-07
5.2407372e-07
3.6241478e-07
2.3819522e-07
1.4414604e-07
6.9345663e-08
2.7586913e-08
9.5056901e-09
2.9050339e-09
7.9718632e-10
1.9536346e-10
4.1677637e-11
7.4097352e-12
1.0990162e-12
2.4470456e-13
1.9201618e-13
2.0445056e-13
4.3486051e-05
1.1702704e-05
1.6524236e-05
1.924451e-05
1.0535168e-05
5.6391566e-06
3.189765e-06
2.0018109e-06
1.9366414e-06
2.1400086e-06
1.9646692e-06
1.7084708e-06
9.6778609e-07
7.6005888e-07
5.2416691e-07
3.6246455e-07
2.3821252e-07
1.441455e-07
6.9327903e-08
2.7576318e-08
9.5011669e-09
2.9034829e-09
7.9673375e-10
1.9524877e-10
4.1652663e-11
7.4052163e-12
1.0983172e-12
2.4452566e-13
1.91866e-13
2.0428983e-13
4.3487825e-05
1.170347e-05
1.6518866e-05
1.9255203e-05
1.0547058e-05
5.6467171e-06
3.1937252e-06
2.0026958e-06
1.935141e-06
2.1381654e-06
1.9631152e-06
1.7071224e-06
9.6750218e-07
7.6008713e-07
5.2426578e-07
3.6251833e-07
2.3823245e-07
1.4414652e-07
6.931087e-08
2.7566005e-08
9.4967392e-09
2.901961e-09
7.9628936e-10
1.9513614e-10
4.1628148e-11
7.4007817e-12
1.0976298e-12
2.4434799e-13
1.9171619e-13
2.0412947e-13
4.3489607e-05
1.1704184e-05
1.6513324e-05
1.9265627e-05
1.0558824e-05
5.6542427e-06
3.1976847e-06
2.0036112e-06
1.9336525e-06
2.1363082e-06
1.9615457e-06
1.7057697e-06
9.6722227e-07
7.6012207e-07
5.2437034e-07
3.6257623e-07
2.3825516e-07
1.4414926e-07
6.9294699e-08
2.7556044e-08
9.4924349e-09
2.9004771e-09
7.9585529e-10
1.95026e-10
4.1604152e-11
7.3964357e-12
1.0969538e-12
2.4417126e-13
1.9156646e-13
2.0396919e-13
4.3491399e-05
1.1704852e-05
1.6507607e-05
1.927576e-05
1.0570471e-05
5.6617304e-06
3.2016398e-06
2.0045551e-06
1.9321747e-06
2.1344381e-06
1.959962e-06
1.7044126e-06
9.6694634e-07
7.6016362e-07
5.2448056e-07
3.626382e-07
2.3828061e-07
1.441537e-07
6.9279362e-08
2.7546417e-08
9.4882454e-09
2.8990281e-09
7.954308e-10
1.9491821e-10
4.1580658e-11
7.3921786e-12
1.0962899e-12
2.4399611e-13
1.9141749e-13
2.0380969e-13
4.3493201e-05
1.1705481e-05
1.6501716e-05
1.9285593e-05
1.0581977e-05
5.6691451e-06
3.205594e-06
2.0055298e-06
1.9307076e-06
2.1325557e-06
1.9583641e-06
1.7030515e-06
9.6667442e-07
7.6021217e-07
5.2459664e-07
3.6270438e-07
2.383089e-07
1.4415991e-07
6.9264947e-08
2.7537179e-08
9.4841951e-09
2.8976225e-09
7.9501822e-10
1.9481331e-10
4.1557767e-11
7.3880241e-12
1.095639e-12
2.43822e-13
1.912686e-13
2.0365024e-13
4.3495015e-05
1.1706075e-05
1.649566e-05
1.9295123e-05
1.0593335e-05
5.6764829e-06
3.2095497e-06
2.006536e-06
1.9292508e-06
2.1306623e-06
1.9567523e-06
1.7016862e-06
9.6640635e-07
7.6026765e-07
5.2471848e-07
3.627746e-07
2.3833981e-07
1.4416767e-07
6.9251268e-08
2.7528225e-08
9.4802415e-09
2.8962464e-09
7.9461385e-10
1.9471047e-10
4.153533e-11
7.3839525e-12
1.0949994e-12
2.4364902e-13
1.9111996e-13
2.0349106e-13
4.3496843e-05
1.1706636e-05
1.6489442e-05
1.9304329e-05
1.0604535e-05
5.683749e-06
3.2134999e-06
2.007571e-06
1.9278038e-06
2.1287596e-06
1.9551282e-06
1.7003168e-06
9.6614215e-07
7.6032996e-07
5.2484613e-07
3.6284897e-07
2.3837348e-07
1.4417712e-07
6.9238436e-08
2.7519619e-08
9.4764097e-09
2.8949077e-09
7.9421967e-10
1.946101e-10
4.1513406e-11
7.3799684e-12
1.0943709e-12
2.434768e-13
1.9097124e-13
2.0333177e-13
4.3498684e-05
1.1707166e-05
1.6483078e-05
1.9313221e-05
1.0615564e-05
5.6909303e-06
3.2174377e-06
2.0086337e-06
1.926367e-06
2.1268488e-06
1.9534926e-06
1.6989434e-06
9.6588186e-07
7.60399e-07
5.2497955e-07
3.6292748e-07
2.384099e-07
1.4418824e-07
6.9226418e-08
2.7511335e-08
9.4726882e-09
2.8936024e-09
7.9383461e-10
1.9451194e-10
4.1491956e-11
7.3760678e-12
1.0937537e-12
2.4330591e-13
1.9082305e-13
2.0317302e-13
4.350054e-05
1.170767e-05
1.6476593e-05
1.9321875e-05
1.0626446e-05
5.6980434e-06
3.2213666e-06
2.0097216e-06
1.9249397e-06
2.1249308e-06
1.9518455e-06
1.697566e-06
9.6562554e-07
7.6047509e-07
5.2511895e-07
3.6301033e-07
2.3844926e-07
1.4420119e-07
6.9215333e-08
2.7503442e-08
9.4691063e-09
2.8923407e-09
7.9346151e-10
1.9441669e-10
4.147111e-11
7.3722703e-12
1.0931495e-12
2.4313614e-13
1.9067504e-13
2.0301446e-13
4.3502411e-05
1.1708154e-05
1.6470014e-05
1.933036e-05
1.0637237e-05
5.7051259e-06
3.2252952e-06
2.0108332e-06
1.9235204e-06
2.1230062e-06
1.9501874e-06
1.6961845e-06
9.6537302e-07
7.6055804e-07
5.2526418e-07
3.6309732e-07
2.3849135e-07
1.4421576e-07
6.920501e-08
2.7495843e-08
9.4656235e-09
2.8911089e-09
7.9309672e-10
1.9432352e-10
4.1450723e-11
7.3685563e-12
1.0925569e-12
2.4296759e-13
1.9052739e-13
2.0285627e-13
4.3504297e-05
1.1708618e-05
1.6463348e-05
1.9338662e-05
1.0647932e-05
5.7121668e-06
3.2292195e-06
2.0119703e-06
1.92211e-06
2.1210754e-06
1.9485187e-06
1.6947986e-06
9.6512423e-07
7.6064778e-07
5.2541526e-07
3.631885e-07
2.3853624e-07
1.4423208e-07
6.9195567e-08
2.7488605e-08
9.4622675e-09
2.8899162e-09
7.9274259e-10
1.9423292e-10
4.1430874e-11
7.3649342e-12
1.0919758e-12
2.4279989e-13
1.9037969e-13
2.02698e-13
4.3506198e-05
1.1709065e-05
1.6456596e-05
1.9346728e-05
1.0658484e-05
5.7191285e-06
3.2331224e-06
2.0131317e-06
1.9207097e-06
2.1191397e-06
1.9468402e-06
1.6934085e-06
9.6487928e-07
7.6074414e-07
5.2557213e-07
3.6328382e-07
2.3858389e-07
1.4425007e-07
6.9186942e-08
2.7481692e-08
9.459023e-09
2.8887573e-09
7.923977e-10
1.9414459e-10
4.1411508e-11
7.3613975e-12
1.0914064e-12
2.4263362e-13
1.9023261e-13
2.0254036e-13
4.3508115e-05
1.1709499e-05
1.6449771e-05
1.9354557e-05
1.0668895e-05
5.7260079e-06
3.2370099e-06
2.0143165e-06
1.9193185e-06
2.1171989e-06
1.9451519e-06
1.6920147e-06
9.646384e-07
7.6084753e-07
5.2573502e-07
3.6338349e-07
2.3863446e-07
1.4426988e-07
6.9179249e-08
2.7475172e-08
9.4559196e-09
2.8876425e-09
7.9206496e-10
1.9405921e-10
4.1392757e-11
7.3579658e-12
1.0908503e-12
2.4246839e-13
1.9008559e-13
2.0238278e-13
4.3510047e-05
1.170993e-05
1.6442898e-05
1.9362193e-05
1.0679186e-05
5.7328195e-06
3.2408959e-06
2.0155246e-06
1.9179354e-06
2.1152531e-06
1.9434533e-06
1.6906169e-06
9.6440153e-07
7.6095786e-07
5.2590381e-07
3.6348732e-07
2.3868774e-07
1.4429129e-07
6.9172303e-08
2.7468937e-08
9.4529116e-09
2.8865565e-09
7.9174019e-10
1.9397582e-10
4.1374445e-11
7.354614e-12