/*--------------------------------*- C++ -*----------------------------------*\
| =========                 |                                                 |
| \\      /  F ield         | OpenFOAM: The Open Source CFD Toolbox           |
|  \\    /   O peration     | Version:  v2012                                 |
|   \\  /    A nd           | Website:  www.openfoam.com                      |
|    \\/     M anipulation  |                                                 |
\*---------------------------------------------------------------------------*/
FoamFile
{
    version     2.0;
    format      ascii;
    class       volScalarField;
    location    "250";
    object      omega;
}
// * * * * * * * * * * * * * * * * * * * * * * * * * * * * * * * * * * * * * //

dimensions      [0 0 -1 0 0 0 0];


internalField   nonuniform List<scalar> 
24000
(
2146.5267
2830.3252
2381.1137
2388.3566
3275.1196
7445.2978
18968.681
48942.895
106593.91
165342.42
189295.11
191922.48
297236.21
586840.54
1012265
1464997.8
1931735.3
2473230.6
3221462.3
4405337.1
6406391.6
9884745.6
16069381
27451758
49583640
96368841
2.0860268e+08
5.3686489e+08
1.8750305e+09
1.2676599e+10
2146.1521
2829.8786
2380.7341
2387.906
3270.724
7422.3603
18920.987
48751.405
106027.85
164796.03
188924.55
190281.18
291648.06
577512.92
999525.56
1449762.6
1913147
2449988.8
3193487.9
4374414.6
6374578.6
9851793.5
16030826
27397209
49492208
96193762
2.082164e+08
5.3581492e+08
1.8709367e+09
1.2657524e+10
2145.7297
2829.0474
2380.1352
2387.4955
3266.2485
7395.5689
18846.906
48570.009
105813.3
164725.57
188997.52
189959.39
290054.49
574152.86
994927.74
1444816.9
1908072.3
2444229.3
3185260.4
4361133.8
6354060
9823048
15993566
27350051
49429697
96100662
2.080528e+08
5.3546695e+08
1.8700266e+09
1.2646697e+10
2145.3207
2828.3114
2379.7161
2387.2073
3262.2824
7369.4801
18786.484
48455.367
105702.08
164687.92
188996.81
189893.82
289688.49
573641
994202.84
1444165.1
1907928.1
2444825.9
3187090.3
4365019.1
6360812.1
9833139.6
16007272
27368138
49454662
96139255
2.0812288e+08
5.3562141e+08
1.8704595e+09
1.2651204e+10
2144.9272
2827.6191
2379.3857
2386.9662
3258.145
7343.2698
18729.513
48351.147
105593.98
164620.92
188936.01
189823.53
289549.57
573254.99
993546.77
1443312
1906908.2
2443579.7
3185458.8
4362787.4
6357817.4
9829326.6
16002620
27362464
49447288
96128318
2.0810338e+08
5.3557806e+08
1.8703321e+09
1.2650003e+10
2144.548
2826.9947
2379.1381
2386.7246
3254.0053
7317.4685
18674.558
48251.522
105489.2
164555.15
188877.01
189747.85
289492.61
573143.71
993308.79
1442943.4
1906441.2
2443070.8
3184990.7
4362456.9
6357704.8
9829470.4
16003025
27363136
49448296
96129885
2.0810612e+08
5.3558367e+08
1.8703455e+09
1.2650178e+10
2144.1833
2826.4305
2378.9502
2386.4778
3249.8866
7291.8948
18620.383
48153.127
105382.87
164491.01
188814.59
189664.69
289455.38
573100.94
993162.98
1442638.3
1905983.4
2442498.9
3184359.8
4361819.9
6357099
9828912
16002508
27362628
49447718
96129057
2.0810456e+08
5.3557982e+08
1.8703322e+09
1.2650081e+10
2143.8331
2825.9195
2378.806
2386.2271
3245.7929
7266.491
18566.656
48055.311
105275.51
164426.32
188751.25
189579.62
289426.45
573090.65
993068.74
1442386.7
1905572.6
2441968.9
3183776.7
4361253.2
6356601.3
9828508
16002196
27362382
49447490
96128751
2.0810393e+08
5.3557802e+08
1.8703246e+09
1.2650044e+10
2143.4978
2825.4585
2378.6882
2385.9719
3241.7229
7241.2283
18513.248
47957.733
105167.09
164359.82
188686.93
189493.86
289399.28
573089.16
992989.35
1442150
1905172.7
2441443.9
3183190.7
4360674.1
6356078.3
9828061.9
16001817
27362033
49447092
96128139
2.0810268e+08
5.3557465e+08
1.8703118e+09
1.2649969e+10
2143.1751
2825.0479
2378.5885
2385.712
3237.677
7216.1024
18460.147
47860.32
105057.68
164291.18
188621.85
189408.02
289371.36
573087.38
992910.85
1441914.9
1904774.4
2440919.8
3182604.9
4360093.1
6355549.3
9827600.7
16001406
27361620
49446570
96127276
2.0810087e+08
5.3556988e+08
1.8702941e+09
1.2649862e+10
2142.8635
2824.6862
2378.5018
2385.4468
3233.6569
7191.117
18407.369
47763.07
104947.36
164220.34
188556.09
189322.09
289341.55
573081.11
992826.29
1441674.2
1904371.4
2440391.8
3182014.8
4359505.4
6355007.9
9827116.6
16000954
27361132
49445910
96126149
2.080985e+08
5.3556365e+08
1.8702713e+09
1.2649721e+10
2142.5633
2824.3583
2378.4252
2385.1762
3229.6654
7166.3357
18354.935
47666.02
104836.24
164147.32
188489.7
189236.06
289309.49
573068.94
992733.21
1441425.1
1903961.3
2439858.3
3181420
4358911.7
6354455.7
9826612
16000464
27360575
49445123
96124770
2.0809558e+08
5.3555604e+08
1.8702438e+09
1.2649548e+10
2142.2744
2824.0603
2378.3566
2384.8998
3225.705
7141.8154
18302.863
47569.216
104724.42
164072.2
188422.69
189149.82
289275.16
573050.58
992630.83
1441166.7
1903543.2
2439318.4
3180819.4
4358311
6353892
9826086.9
15999937
27359953
49444215
96123159
2.0809217e+08
5.3554715e+08
1.8702118e+09
1.2649346e+10
2141.9968
2823.7909
2378.2944
2384.6175
3221.7773
7117.565
18251.178
47472.701
104611.99
163995.05
188355.08
189063.27
289238.68
573026.4
992519.61
1440899.2
1903117.2
2438772
3180213.2
4357703.5
6353317.4
9825541.9
15999374
27359265
49443188
96121313
2.0808825e+08
5.3553698e+08
1.8701753e+09
1.2649113e+10
2141.7304
2823.5488
2378.2371
2384.3289
3217.8837
7093.5917
18199.899
47376.511
104499.05
163915.94
188286.86
188976.29
289200.21
572996.86
992400.06
1440623.1
1902683.4
2438218.9
3179600.6
4357088.1
6352730.7
9824976.6
15998776
27358516
49442048
96119251
2.0808387e+08
5.3552561e+08
1.8701347e+09
1.2648852e+10
2141.4749
2823.3328
2378.1838
2384.034
3214.0254
7069.9016
18149.044
47280.673
104385.72
163834.9
188218.01
188888.8
289159.93
572962.56
992273.01
1440339.1
1902242.5
2437659.7
3178981.9
4356465.1
6352132.2
9824391.3
15998144
27357706
49440798
96116974
2.0807902e+08
5.3551308e+08
1.8700901e+09
1.2648564e+10
2141.2302
2823.1416
2378.1337
2383.7324
3210.2032
7046.4989
18098.625
47185.207
104272.11
163751.98
188148.5
188800.69
289118.03
572924.09
992139.31
1440048.2
1901795.3
2437094.8
3178357.6
4355834.8
6351522.1
9823787.1
15997479
27356841
49439448
96114507
2.0807377e+08
5.354995e+08
1.8700418e+09
1.2648252e+10
2140.996
2822.9742
2378.086
2383.4239
3206.4178
7023.387
18048.655
47090.12
104158.37
163667.21
188078.25
188711.89
289074.71
572882.17
992000.08
1439751.5
1901342.9
2436525.5
3177728.7
4355198.5
6350902.6
9823166.2
15996786
27355924
49438004
96111857
2.0806812e+08
5.3548493e+08
1.8699902e+09
1.2647916e+10
2140.7721
2822.8294
2378.0401
2383.1086
3202.6697
7000.5684
17999.143
46995.409
104044.37
163581.08
188007.17
188622.31
289030.12
572837.23
991855.9
1439449.5
1900885.7
2435951.8
3177095.4
4354556.3
6350273.7
9822529.7
15996065
27354961
49436478
96109049
2.0806214e+08
5.354695e+08
1.8699356e+09
1.2647561e+10
2140.5581
2822.7065
2377.9957
2382.7862
3198.9594
6978.0452
17950.099
46901.065
103929.95
163494.13
187935.14
188531.89
288984.35
572789.68
991707.33
1439142.8
1900424.1
2435374.1
3176457.9
4353908.6
6349636.3
9821878.9
15995320
27353955
49434873
96106088
2.0805583e+08
5.3545323e+08
1.8698781e+09
1.2647185e+10
2140.3538
2822.6045
2377.9523
2382.4567
3195.2873
6955.8188
17901.53
46807.093
103815.13
163406.44
187862.12
188440.55
288937.53
572739.84
991554.77
1438831.6
1899958.2
2434792.4
3175816.1
4353255.1
6348989.9
9821213.5
15994551
27352907
49433194
96102985
2.0804922e+08
5.354362e+08
1.8698179e+09
1.2646791e+10
2140.1589
2822.5225
2377.9096
2382.1203
3191.6538
6933.8906
17853.441
46713.503
103699.97
163318
187788.09
188348.25
288889.75
572688.11
991398.9
1438516.8
1899488.7
2434207.2
3175170.4
4352596.5
6348335.5
9820534.6
15993759
27351819
49431440
96099738
2.0804229e+08
5.3541837e+08
1.8697551e+09
1.2646379e+10
2139.973
2822.4598
2377.8674
2381.777
3188.0594
6912.2616
17805.834
46620.31
103584.48
163228.83
187713.04
188254.94
288841.09
572634.76
991240.01
1438198.5
1899015.8
2433618.5
3174520.8
4351932.5
6347672.7
9819842.1
15992944
27350692
49429618
96096359
2.0803509e+08
5.3539984e+08
1.8696898e+09
1.2645949e+10
2139.7959
2822.4156
2377.8255
2381.427
3184.5047
6890.9324
17758.712
46527.521
103468.71
163138.91
187636.96
188160.58
288791.61
572579.97
991078.43
1437877
1898539.6
2433026.5
3173867.5
4351263.5
6347002.2
9819136.9
15992107
27349528
49427727
96092848
2.080276e+08
5.3538059e+08
1.8696221e+09
1.2645503e+10
2139.6271
2822.3891
2377.7838
2381.0705
3180.9902
6869.9042
17712.078
46435.144
103352.64
163048.23
187559.85
188065.15
288741.33
572523.88
990914.28
1437552.4
1898060
2432431.1
3173210.1
4350589.1
6346323.4
9818418.6
15991249
27348326
49425771
96089213
2.0801985e+08
5.3536067e+08
1.869552e+09
1.2645041e+10
2139.4663
2822.3796
2377.7422
2380.7078
3177.5166
6849.1777
17665.934
46343.179
103236.28
162956.78
187481.68
187968.6
288690.31
572466.74
990748.04
1437225.2
1897577.7
2431832.5
3172549.1
4349909.8
6345637.4
9817688.2
15990370
27347089
49423749
96085449
2.0801182e+08
5.3534004e+08
1.8694796e+09
1.2644562e+10
2139.3132
2822.3865
2377.7008
2380.3394
3174.0847
6828.7537
17620.282
46251.635
103119.64
162864.56
187402.47
187870.92
288638.57
572408.61
990579.77
1436895.6
1897092.5
2431230.8
3171884.1
4349224.9
6344943
9816944.9
15989470
27345816
49421665
96081567
2.0800355e+08
5.3531878e+08
1.869405e+09
1.2644068e+10
2139.1675
2822.409
2377.6594
2379.9656
3170.6952
6808.633
17575.126
46160.519
103002.71
162771.56
187322.22
187772.08
288586.17
572349.7
990409.79
1436563.8
1896605.1
2430626.2
3171215.4
4348534.7
6344240.8
9816189.3
15988551
27344510
49419519
96077566
2.0799501e+08
5.3529688e+08
1.8693281e+09
1.2643558e+10
2139.0288
2822.4465
2377.6181
2379.5869
3167.3489
6788.8167
17530.467
46069.834
102885.5
162677.75
187240.91
187672.06
288533.14
572290.13
990238.31
1436230.2
1896115.4
2430019.2
3170543.3
4347839.7
6343530.7
9815421.2
15987611
27343169
49417315
96073454
2.0798624e+08
5.3527439e+08
1.8692493e+09
1.2643035e+10
2138.8968
2822.4984
2377.577
2379.2039
3164.0469
6769.3061
17486.309
45979.581
102767.99
162583.13
187158.53
187570.83
288479.49
572230.04
990065.6
1435895
1895624.1
2429410.1
3169868.7
4347140.7
6342814.5
9814642.6
15986653
27341797
49415052
96069228
2.0797723e+08
5.3525126e+08
1.8691683e+09
1.2642496e+10
2138.7713
2822.564
2377.5362
2378.8171
3160.7902
6750.1025
17442.652
45889.758
102650.17
162487.67
187075.05
187468.38
288425.2
572169.33
989891.44
1435557.9
1895130.6
2428798.5
3169190.8
4346437
6342091
9813852.7
15985676
27340394
49412734
96064898
2.07968e+08
5.3522759e+08
1.8690855e+09
1.2641944e+10
2138.6517
2822.6427
2377.4958
2378.4271
3157.58
6731.2071
17399.498
45800.362
102532.03
162391.34
186990.46
187364.68
288370.28
572108.05
989715.93
1435219.1
1894635.2
2428184.7
3168509.7
4345728.8
6341360.6
9813051.8
15984682
27338960
49410361
96060461
2.0795853e+08
5.3520333e+08
1.8690006e+09
1.2641378e+10
2138.5379
2822.7338
2377.456
2378.0346
3154.4173
6712.621
17356.848
45711.397
102413.54
162294.12
186904.76
187259.72
288314.75
572046.26
989539.12
1434878.6
1894137.9
2427568.6
3167825.6
4345016
6340622.8
9812239.1
15983669
27337495
49407935
96055923
2.0794886e+08
5.3517854e+08
1.868914e+09
1.2640799e+10
2138.4296
2822.8367
2377.4169
2377.6402
3151.3032
6694.3457
17314.704
45622.864
102294.7
162195.98
186817.91
187153.49
288258.62
571984.1
989361.29
1434536.8
1893639
2426950.7
3167139.3
4344299.8
6339879.7
9811417.2
15982639
27336001
49405453
96051278
2.0793895e+08
5.3515316e+08
1.8688253e+09
1.2640206e+10
2138.3264
2822.951
2377.3788
2377.2447
3148.239
6676.3826
17273.068
45534.763
102175.48
162096.9
186729.9
187045.97
288201.87
571921.44
989182.16
1434193.3
1893138.1
2426330.4
3166449.9
4343579.2
6339129.6
9810584.4
15981592
27334477
49402920
96046535
2.0792884e+08
5.3512727e+08
1.8687349e+09
1.2639601e+10
2138.2281
2823.0758
2377.3417
2376.8486
3145.2257
6658.7329
17231.943
45447.091
102055.87
161996.83
186640.69
186937.17
288144.49
571858.3
989001.83
1433848.1
1892635.3
2425707.7
3165757.4
4342854.2
6338373
9809741.2
15980528
27332924
49400334
96041689
2.079185e+08
5.351008e+08
1.8686425e+09
1.2638982e+10
2138.1343
2823.2108
2377.306
2376.4528
3142.2644
6641.3977
17191.333
45359.85
101935.85
161895.77
186550.28
186827.07
288086.51
571794.73
988820.31
1433501.3
1892130.4
2425082.7
3165061.6
4342124.4
6337608.9
9808886.3
15979445
27331340
49397694
96036744
2.0790796e+08
5.3507383e+08
1.8685484e+09
1.2638351e+10
2138.0448
2823.3553
2377.2717
2376.0579
3139.3562
6624.3777
17151.241
45273.047
101815.41
161793.66
186458.63
186715.65
288027.92
571730.81
988637.84
1433153.2
1891624.1
2424455.7
3164363.3
4341390.9
6336839.1
9808021.8
15978345
27329726
49395000
96031690
2.0789718e+08
5.3504624e+08
1.8684523e+09
1.2637705e+10
2137.9594
2823.5089
2377.2392
2375.6645
3136.502
6607.6741
17111.669
45186.682
101694.52
161690.47
186365.71
186602.92
287968.72
571666.45
988454.21
1432803.5
1891116
2423826.5
3163661.8
4340652.7
6336062
9807145.8
15977227
27328082
49392251
96026534
2.0788618e+08
5.3501812e+08
1.8683543e+09
1.2637046e+10
2137.8777
2823.671
2377.2085
2375.2733
3133.7028
6591.2879
17072.621
45100.754
101573.16
161586.16
186271.49
186488.84
287908.87
571601.62
988269.38
1432452.3
1890605.9
2423195.1
3162957.5
4339910.2
6335278.3
9806259.3
15976091
27326407
49389447
96021270
2.0787496e+08
5.349894e+08
1.8682542e+09
1.2636373e+10
2137.7996
2823.8411
2377.18
2374.885
3130.9595
6575.22
17034.099
45015.264
101451.32
161480.71
186175.93
186373.41
287848.34
571536.21
988083.14
1432099.1
1890093.6
2422560.9
3162249.6
4339162.8
6334486.8
9805360.4
15974936
27324699
49386587
96015901
2.0786351e+08
5.3496014e+08
1.8681523e+09
1.2635687e+10
2137.7248
2824.0188
2377.1537
2374.5002
3128.273
6559.4709
16996.105
44930.213
101328.97
161374.05
186079
186256.62
287787.15
571470.31
987895.75
1431744.5
1889579.6
2421924.7
3161539.1
4338411.5
6333689.4
9804451.7
15973763
27322961
49383669
96010419
2.0785182e+08
5.3493024e+08
1.8680483e+09
1.2634985e+10
2137.6531
2824.2036
2377.1299
2374.1195
3125.6441
6544.0408
16958.64
44845.61
101206.1
161266.15
185980.66
186138.43
287725.27
571403.86
987707.04
1431388.1
1889063.4
2421285.9
3160825.2
4337655.3
6332884.5
9803531.1
15972571
27321191
49380696
96004832
2.0783991e+08
5.348998e+08
1.8679424e+09
1.2634271e+10
2137.5842
2824.3951
2377.1088
2373.7435
3123.0732
6528.9294
16921.707
44761.463
101082.69
161156.98
185880.87
186018.84
287662.7
571336.86
987517.06
1431030.1
1888545.3
2420644.7
3160107.9
4336894.4
6332072.5
9802599.5
15971362
27319390
49377666
95999135
2.0782775e+08
5.3486874e+08
1.8678343e+09
1.2633541e+10
2137.5181
2824.5928
2377.0904
2373.3726
3120.5609
6514.136
16885.312
44677.78
100958.74
161046.49
185779.58
185897.81
287599.4
571269.27
987325.69
1430670.1
1888024.9
2420000.6
3159386.8
4336127.9
6331251.9
9801654.6
15970131
27317554
49374578
95993330
2.0781538e+08
5.3483713e+08
1.8677244e+09
1.2632799e+10
2137.4545
2824.7963
2377.075
2373.0074
3118.1075
6499.6601
16849.46
44594.567
100834.23
160934.62
185676.77
185775.33
287535.43
571201.23
987133.27
1430308.9
1887503
2419354.6
3158663.1
4335357.5
6330425.4
9800699.8
15968883
27315688
49371431
95987408
2.0780275e+08
5.3480486e+08
1.8676122e+09
1.263204e+10
2137.3932
2825.0052
2377.0627
2372.6483
3115.7132
6485.5009
16814.153
44511.83
100709.16
160821.33
185572.37
185651.37
287470.74
571132.67
986939.62
1429946
1886979.1
2418706.2
3157936.2
4334582.3
6329591.3
9799733
15967616
27313789
49368229
95981382
2.077899e+08
5.3477205e+08
1.8674982e+09
1.2631269e+10
2137.3342
2825.2192
2377.0535
2372.2958
3113.3784
6471.6575
16779.392
44429.581
100583.52
160706.56
185466.32
185525.92
287405.3
571063.49
986744.61
1429581.5
1886453.4
2418055.6
3157206.2
4333802.5
6328750.2
9798755.1
15966330
27311859
49364969
95975244
2.0777681e+08
5.3473861e+08
1.8673821e+09
1.2630482e+10
2137.2772
2825.4379
2377.0477
2371.9502
3111.1032
6458.1285
16745.177
44347.827
100457.29
160590.25
185358.57
185398.96
287339.08
570993.6
986548.03
1429214.9
1885925.3
2417402.2
3156472.6
4333017.5
6327900.8
9797763.9
15965023
27309895
49361649
95968995
2.0776349e+08
5.347046e+08
1.867264e+09
1.2629682e+10
2137.2221
2825.661
2377.0452
2371.6118
3108.8875
6444.9119
16711.508
44266.576
100330.47
160472.35
185249.06
185270.48
287272.1
570923.09
986350.12
1428846.6
1885395.3
2416746.8
3155736.5
4332228.9
6327045.7
9796763.1
15963699
27307899
49358270
95962629
2.0774991e+08
5.3466993e+08
1.8671436e+09
1.2628866e+10
2137.1688
2825.8881
2377.0462
2371.281
3106.7312
6432.0054
16678.385
44185.836
100203.06
160352.78
185137.73
185140.46
287204.32
570851.82
986150.59
1428476.2
1884862.9
2416088.4
3154996.5
4331435
6326182.6
9795749.8
15962355
27305869
49354833
95956153
2.077361e+08
5.3463469e+08
1.8670213e+09
1.2628037e+10
2137.1171
2826.1189
2377.0506
2370.9579
3104.6338
6419.4058
16645.811
44105.622
100075.08
160231.51
185024.53
185008.91
287135.77
570779.86
985949.57
1428103.9
1884328.3
2415427.3
3154253
4330635.9
6325312.1
9794724.9
15960992
27303807
49351338
95949563
2.0772204e+08
5.3459881e+08
1.8668969e+09
1.2627192e+10
2137.067
2826.3532
2377.0585
2370.6428
3102.5947
6407.1097
16613.789
44025.953
99946.536
160108.48
184909.41
184875.82
287066.47
570707.24
985747.06
1427729.7
1883791.2
2414763.2
3153505.5
4329831.2
6324432.8
9793686.3
15959608
27301711
49347782
95942861
2.0770775e+08
5.3456236e+08
1.8667704e+09
1.2626334e+10
2137.0183
2826.5907
2377.0698
2370.3358
3100.6136
6395.1138
16582.32
43946.838
99817.44
159983.63
184792.31
184741.2
286996.43
570634.07
985543.33
1427353.9
1883252.5
2414097.1
3152755.4
4329022.6
6323547.4
9792637.6
15958205
27299582
49344166
95936039
2.076932e+08
5.3452523e+08
1.8666417e+09
1.2625459e+10
2136.971
2826.8311
2377.0845
2370.037
3098.6898
6383.4152
16551.399
43868.28
99687.797
159856.88
184673.14
184605.04
286925.61
570560.14
985338.02
1426976.1
1882711.5
2413428.2
3152001.5
4328208.5
6322653.7
9791575.9
15956783
27297418
49340490
95929106
2.0767842e+08
5.3448752e+08
1.8665109e+09
1.262457e+10
2136.925
2827.0743
2377.1026
2369.7465
3096.8228
6372.0099
16521.021
43790.285
99557.621
159728.19
184551.86
184467.36
286854.01
570485.47
985131.13
1426596.4
1882168.3
2412756.9
3151244.5
4327389.8
6321752.9
9790502.9
15955341
27295223
49336756
95922057
2.0766338e+08
5.3444916e+08
1.866378e+09
1.2623666e+10
2136.8802
2827.32
2377.1239
2369.4644
3095.0117
6360.8936
16491.183
43712.866
99426.937
159597.54
184428.42
184328.17
286781.63
570409.99
984922.46
1426214.4
1881622.4
2412082.5
3150483.4
4326565.5
6320843.3
9789416.1
15953877
27292991
49332959
95914893
2.0764811e+08
5.3441021e+08
1.866243e+09
1.2622748e+10
2136.8365
2827.5679
2377.1484
2369.1907
3093.2558
6350.0614
16461.882
43636.032
99295.77
159464.86
184302.78
184187.46
286708.48
570333.8
984712.32
1425830.5
1881074.6
2411405.7
3149719.5
4325737.1
6319927.7
9788319.1
15952396
27290727
49329102
95907609
2.0763257e+08
5.3437059e+08
1.8661057e+09
1.2621814e+10
2136.794
2827.8179
2377.176
2368.9253
3091.554
6339.5085
16433.114
43559.794
99164.141
159330.16
184174.89
184045.22
286634.57
570256.85
984500.52
1425444.5
1880524.1
2410725.9
3148951.7
4324903.2
6319003.7
9787209.1
15950893
27288428
49325183
95900210
2.0761679e+08
5.3433036e+08
1.8659664e+09
1.2620865e+10
2136.7525
2828.0698
2377.2065
2368.6683
3089.9052
6329.2295
16404.88
43484.156
99032.079
159193.4
184044.74
183901.46
286559.89
570179.16
984287.11
1425056.4
1879971.2
2410043.1
3148180
4324064
6318072
9786087.1
15949371
27286096
49321204
95892691
2.0760076e+08
5.3428947e+08
1.8658248e+09
1.26199e+10
2136.712
2828.3234
2377.2399
2368.4196
3088.3086
6319.2194
16377.173
43409.121
98899.606
159054.61
183912.32
183756.17
286484.44
570100.69
984071.98
1424666.1
1879415.7
2409357
3147403.8
4323218.4
6317130.7
9784950.5
15947826
27283726
49317160
95885053
2.0758447e+08
5.3424796e+08
1.8656811e+09
1.2618921e+10
2136.6725
2828.5785
2377.2759
2368.1791
3086.7631
6309.4732
16349.983
43334.691
98766.745
158913.78
183777.61
183609.35
286408.25
570021.63
983855.54
1424274.2
1878858.4
2408668.9
3146625
4322368.8
6316182.9
9783803.2
15946262
27281323
49313056
95877295
2.0756792e+08
5.3420578e+08
1.865535e+09
1.2617925e+10
2136.634
2828.8351
2377.3145
2367.9468
3085.2678
6299.9855
16323.304
43260.868
98633.514
158770.95
183640.63
183460.96
286331.29
569941.86
983637.52
1423880.3
1878298.9
2407978.2
3145842.6
4321513.9
6315227
9782642.8
15944678
27278886
49308890
95869420
2.0755113e+08
5.3416298e+08
1.8653869e+09
1.2616915e+10
2136.5964
2829.0929
2377.3554
2367.7224
3083.8214
6290.7508
16297.127
43187.649
98499.925
158626.16
183501.39
183310.98
286253.52
569861.32
983417.84
1423484.2
1877737
2407284.7
3145057
4320654.5
6314264.1
9781471.2
15943074
27276415
49304663
95861429
2.0753409e+08
5.3411954e+08
1.8652366e+09
1.261589e+10
2136.5598
2829.3519
2377.3985
2367.5059
3082.423
6281.7636
16271.446
43115.032
98365.996
158479.45
183359.91
183159.39
286174.94
569779.93
983196.26
1423085.7
1877172.1
2406587.7
3144266.8
4319788.8
6313291.8
9780285.1
15941448
27273906
49300372
95853316
2.0751679e+08
5.3407547e+08
1.8650841e+09
1.2614849e+10
2136.5241
2829.612
2377.4436
2367.2971
3081.0713
6273.0176
16246.255
43043.022
98231.745
158330.89
183216.23
183006.17
286095.57
569697.89
982973.22
1422685.3
1876605.2
2405888.3
3143473.4
4318918.6
6312312.9
9779088.1
15939803
27271365
49296019
95845080
2.0749922e+08
5.340307e+08
1.8649293e+09
1.2613792e+10
2136.4894
2829.8731
2377.4906
2367.0958
3079.7652
6264.5068
16221.547
42971.617
98097.184
158180.53
183070.4
182851.31
286015.43
569615.19
982748.64
1422283
1876035.9
2405186
3142676.1
4318042.6
6311325.1
9777877.4
15938136
27268787
49291602
95836725
2.074814e+08
5.3398531e+08
1.8647724e+09
1.261272e+10
2136.4557
2830.1353
2377.5393
2366.9019
3078.5036
6256.2261
16197.311
42900.809
97962.317
158028.44
182922.45
182694.79
285934.5
569531.82
982522.51
1421878.6
1875464.4
2404481.1
3141875.5
4317161.9
6310330
9776655
15936449
27266175
49287123
95828250
2.0746333e+08
5.3393925e+08
1.8646131e+09
1.2611632e+10
2136.423
2830.3985
2377.5895
2366.7153
3077.2855
6248.1701
16173.537
42830.586
97827.144
157874.65
182772.4
182536.59
285852.72
569447.62
982294.5
1421471.9
1874890.1
2403772.9
3141070.5
4316274.9
6309325.4
9775417.6
15934739
27263524
49282579
95819651
2.0744499e+08
5.3389256e+08
1.8644517e+09
1.2610529e+10
2136.3913
2830.6627
2377.6411
2366.5357
3076.1099
6240.3332
16150.213
42760.943
97691.681
157719.23
182620.29
182376.71
285770.14
569362.71
982064.94
1421063.2
1874313.7
2403062.4
3140262.8
4315384
6308314.6
9774169.9
15933011
27260841
49277972
95810930
2.0742639e+08
5.3384517e+08
1.8642879e+09
1.2609409e+10
2136.3609
2830.928
2377.694
2366.3629
3074.9757
6232.7096
16127.331
42691.882
97555.928
157562.22
182466.16
182215.14
285686.73
569277
981833.55
1420652.1
1873734.7
2402348.8
3139451
4314487.3
6307295
9772908.4
15931260
27258121
49273302
95802089
2.0740753e+08
5.3379716e+08
1.864122e+09
1.2608274e+10
2136.3316
2831.1945
2377.748
2366.1968
3073.882
6225.294
16104.883
42623.391
97419.888
157403.68
182310.01
182051.88
285602.49
569190.51
981600.36
1420238.8
1873153
2401632.3
3138635.6
4313585.6
6306267.9
9771635.2
15929490
27255367
49268569
95793126
2.0738841e+08
5.3374847e+08
1.8639537e+09
1.2607123e+10
2136.3037
2831.4624
2377.8029
2366.0372
3072.8276
6218.0809
16082.859
42555.458
97283.576
157243.65
182151.87
181886.94
285517.42
569103.18
981365.25
1419822.8
1872568.3
2400912.1
3137815.4
4312677.2
6305230.8
9770346.5
15927696
27252574
49263770
95784039
2.0736904e+08
5.3369913e+08
1.8637833e+09
1.2605957e+10
2136.2773
2831.7318
2377.8588
2365.8838
3071.8117
6211.0651
16061.25
42488.077
97146.993
157082.17
181991.76
181720.33
285431.57
569015.24
981128.7
1419405
1871981.6
2400189.6
3136992.4
4311764.8
6304187.5
9769047.5
15925884
27249748
49258908
95774829
2.0734939e+08
5.336491e+08
1.8636105e+09
1.2604774e+10
2136.2525
2832.0029
2377.9155
2365.7365
3070.8334
6204.2418
16040.042
42421.24
97010.148
156919.24
181829.74
181552.04
285344.92
568926.58
980890.42
1418985
1871392.3
2399464
3136165.2
4310846.4
6303135.1
9767734.2
15924049
27246884
49253981
95765495
2.0732948e+08
5.3359843e+08
1.8634355e+09
1.2603576e+10
2136.2294
2832.2759
2377.9728
2365.595
3069.8919
6197.6064
16019.227
42354.929
96873.04
156754.85
181665.83
181382.07
285257.44
568837.13
980650.37
1418562.7
1870800.4
2398735.5
3135334.6
4309923.2
6302075.4
9766409.4
15922194
27243986
49248992
95756040
2.0730931e+08
5.3354708e+08
1.8632582e+09
1.2602362e+10
2136.2082
2832.5512
2378.0308
2365.4592
3068.9862
6191.1543
15998.794
42289.135
96735.678
156589.03
181500.05
181210.44
285169.12
568746.82
980408.3
1418137.6
1870205.3
2398003.3
3134499.2
4308993.4
6301005.7
9765069
15920315
27241049
49243934
95746459
2.0728889e+08
5.3349509e+08
1.8630787e+09
1.2601132e+10
2136.1891
2832.829
2378.0893
2365.3288
3068.1157
6184.8806
15978.734
42223.852
96598.074
156421.79
181332.4
181037.15
285080
568655.82
980164.65
1417710.6
1869608
2397268.6
3133660.9
4308059.5
6299930
9763718.6
15918419
27238079
49238816
95736755
2.0726818e+08
5.3344239e+08
1.8628967e+09
1.2599885e+10
2136.1723
2833.1097
2378.1483
2365.2036
3067.2794
6178.7809
15959.04
42159.068
96460.224
156253.15
181162.9
180862.22
284990.07
568564.03
979919.13
1417281
1869007.7
2396530.4
3132818
4307119.3
6298844.8
9762353.6
15916499
27235071
49233631
95726927
2.0724722e+08
5.3338904e+08
1.8627126e+09
1.2598624e+10
2136.158
2833.3936
2378.2077
2365.0835
3066.4768
6172.8511
15939.701
42094.768
96322.139
156083.12
180991.55
180685.66
284899.32
568471.48
979671.85
1416849.2
1868404.8
2395789.1
3131971.2
4306173.9
6297752
9760976.7
15914559
27232028
49228383
95716975
2.0722599e+08
5.3333501e+08
1.8625262e+09
1.2597345e+10
2136.1465
2833.6812
2378.2674
2364.9682
3065.707
6167.0876
15920.707
42030.94
96183.818
155911.71
180818.36
180507.48
284807.74
568378.09
979422.61
1416414.6
1867798.6
2395044
3131119.5
4305221.3
6296648.5
9759583.3
15912594
27228944
49223064
95706893
2.072045e+08
5.3328031e+08
1.8623374e+09
1.2596051e+10
2136.138
2833.9729
2378.3276
2364.8575
3064.9695
6161.4863
15902.048
41967.57
96045.263
155738.95
180643.35
180327.7
284715.37
568284.03
979171.85
1415978.2
1867190.4
2394296.4
3130264.9
4304264.9
6295539
9758180
15910611
27225828
49217683
95696685
2.0718272e+08
5.3322489e+08
1.8621462e+09
1.2594739e+10
2136.1329
2834.2691
2378.388
2364.7513
3064.2635
6156.0439
15883.714
41904.645
95906.472
155564.83
180466.51
180146.34
284622.16
568189.08
978919.12
1415539.2
1866579.1
2393545.3
3129405.5
4303301.7
6294419.7
9756761.4
15908604
27222672
49212233
95686349
2.0716068e+08
5.331688e+08
1.8619527e+09
1.2593412e+10
2136.1313
2834.5703
2378.4489
2364.6493
3063.5886
6150.7565
15865.699
41842.157
95767.437
155389.37
180287.87
179963.43
284528.14
568093.32
978664.57
1415097.8
1865965.2
2392791.1
3128542.3
4302333.3
6293292.5
9755330.7
15906577
27219481
49206721
95675890
2.0713836e+08
5.3311203e+08
1.8617568e+09
1.2592068e+10
2136.1336
2834.877
2378.5101
2364.5515
3062.9441
6145.6206
15847.995
41780.089
95628.177
155212.59
180107.42
179778.99
284433.33
567996.78
978408.15
1414653.9
1865348.2
2392033.2
3127674.3
4301358.2
6292155.1
9753884
15904524
27216249
49201139
95665303
2.0711579e+08
5.330546e+08
1.8615588e+09
1.2590708e+10
2136.1402
2835.1898
2378.5718
2364.4576
3062.3294
6140.6334
15830.593
41718.43
95488.685
155034.5
179925.18
179593.02
284337.73
567899.5
978150.13
1414208
1864729
2391272.7
3126803.3
4300378.9
6291011.7
9752427.5
15902455
27212986
49195495
95654591
2.0709294e+08
5.3299646e+08
1.8613582e+09
1.2589332e+10
2136.1515
2835.5092
2378.6339
2364.3675
3061.7442
6135.7919
15813.485
41657.167
95348.947
154855.11
179741.12
179405.56
284241.32
567801.34
977890.14
1413759.5
1864106.7
2390508.7
3125927.6
4299393
6289858.3
9750955.6
15900361
27209683
49189783
95643753
2.0706982e+08
5.3293767e+08
1.8611555e+09
1.2587939e+10
2136.1677
2835.8357
2378.6966
2364.2811
3061.1879
6131.0935
15796.662
41596.285
95208.972
154674.42
179555.29
179216.63
284144.11
567702.36
977628.36
1413308.7
1863481.8
2389741.6
3125048.1
4298402
6288697.4
9749471.9
15898247
27206345
49184009
95632792
2.0704644e+08
5.3287818e+08
1.8609504e+09
1.2586531e+10
2136.1893
2836.1698
2378.7599
2364.1982
3060.6599
6126.5351
15780.118
41535.771
95068.746
154492.44
179367.67
179026.26
284046.09
567602.45
977364.51
1412855.2
1862853.7
2388970.6
3124163.6
4297403.9
6287525.9
9747971.9
15896108
27202967
49178164
95621702
2.0702279e+08
5.3281804e+08
1.860743e+09
1.2585106e+10
2136.2166
2836.5121
2378.8239
2364.1186
3060.1599
6122.114
15763.845
41475.616
94928.274
154309.2
179178.28
178834.47
283947.31
567501.78
977099.05
1412399.6
1862223.3
2388197.2
3123276.1
4296401.8
6286348.4
9746462.1
15893952
27199557
49172259
95610490
2.0699887e+08
5.3275721e+08
1.8605333e+09
1.2583665e+10
2136.25
2836.8631
2378.8886
2364.0424
3059.6875
6117.8274
15747.836
41415.803
94787.561
154124.7
178987.13
178641.28
283847.74
567400.26
976831.7
1411941.6
1861590
2387420.2
3122383.9
4295393.2
6285161.3
9744937.4
15891772
27196107
49166286
95599152
2.0697469e+08
5.3269572e+08
1.8603214e+09
1.2582208e+10
2136.29
2837.2233
2378.9544
2363.9695
3059.2421
6113.6732
15732.085
41356.323
94646.585
153938.94
178794.22
178446.74
283747.39
567297.83
976562.46
1411481.2
1860954
2386640.1
3121487.9
4294379.4
6283966.6
9743400.9
15889573
27192625
49160252
95587693
2.0695025e+08
5.3263355e+08
1.8601071e+09
1.2580735e+10
2136.337
2837.5933
2379.0211
2363.8997
3058.8234
6109.6489
15716.585
41297.161
94505.352
153751.95
178599.54
178250.88
283646.27
567194.48
976291.18
1411018.1
1860314.8
2385856.1
3120587
4293358.6
6282761.3
9741848.2
15887348
27189101
49154149
95576107
2.0692555e+08
5.3257074e+08
1.8598906e+09
1.2579247e+10
2136.3912
2837.9736
2379.0891
2363.8329
3058.4311
6105.7525
15701.327
41238.304
94363.853
153563.72
178403.1
178053.74
283544.4
567090.31
976018.22
1410553
1859673.4
2385069.7
3119683
4292333.6
6281549.9
9740285.6
15885106
27185546
49147985
95564399
2.0690057e+08
5.3250723e+08
1.8596718e+09
1.2577741e+10
2136.4533
2838.3647
2379.1586
2363.7693
3058.0647
6101.9815
15686.307
41179.739
94222.074
153374.28
178204.91
177855.35
283441.76
566985.15