/*--------------------------------*- C++ -*----------------------------------*\
| =========                 |                                                 |
| \\      /  F ield         | OpenFOAM: The Open Source CFD Toolbox           |
|  \\    /   O peration     | Version:  v2012                                 |
|   \\  /    A nd           | Website:  www.openfoam.com                      |
|    \\/     M anipulation  |                                                 |
\*---------------------------------------------------------------------------*/
FoamFile
{
    version     2.0;
    format      ascii;
    class       volScalarField;
    location    "250";
    object      p;
}
// * * * * * * * * * * * * * * * * * * * * * * * * * * * * * * * * * * * * * //

dimensions      [1 -1 -2 0 0 0 0];


internalField   nonuniform List<scalar> 
24000
(
2509009.2
2509009
2509007.3
2509004.6
2509000.6
2508995.4
2508989.7
2508985.2
2508985
2508987.7
2508990.5
2508992.8
2508994.3
2508995.4
2508996.1
2508996.5
2508996.7
2508996.8
2508996.9
2508996.9
2508996.9
2508997
2508997
2508997
2508996.9
2508996.9
2508996.9
2508996.9
2508996.9
2508996.9
2509023.7
2509023.5
2509022.6
2509021.4
2509020.1
2509018.8
2509018
2509018
2509019
2509020.1
2509021
2509021.8
2509022.4
2509022.9
2509023.3
2509023.5
2509023.7
2509023.9
2509023.9
2509024
2509024
2509024
2509024
2509024
2509024
2509024
2509024
2509024
2509024
2509024
2509039.5
2509039.2
2509038.4
2509037.4
2509036.5
2509035.7
2509035.3
2509035.5
2509035.9
2509036.2
2509036.5
2509036.8
2509036.9
2509036.9
2509037
2509036.9
2509036.9
2509036.9
2509036.9
2509036.8
2509036.8
2509036.8
2509036.8
2509036.8
2509036.8
2509036.8
2509036.8
2509036.8
2509036.8
2509036.8
2509055.3
2509055
2509054.4
2509053.8
2509053.4
2509053.1
2509053
2509053.2
2509053.4
2509053.5
2509053.7
2509053.8
2509053.8
2509053.9
2509053.9
2509054
2509054
2509054
2509054
2509054
2509054
2509054
2509054
2509054
2509054
2509054
2509054
2509054
2509054
2509054
2509071.3
2509071
2509070.6
2509070.2
2509070
2509069.9
2509069.9
2509069.9
2509070
2509070
2509070.1
2509070.1
2509070.2
2509070.2
2509070.2
2509070.2
2509070.2
2509070.2
2509070.2
2509070.2
2509070.2
2509070.2
2509070.2
2509070.2
2509070.2
2509070.2
2509070.2
2509070.2
2509070.2
2509070.2
2509087.3
2509087.1
2509086.9
2509086.6
2509086.5
2509086.5
2509086.5
2509086.5
2509086.5
2509086.5
2509086.6
2509086.6
2509086.6
2509086.6
2509086.6
2509086.6
2509086.6
2509086.6
2509086.6
2509086.6
2509086.6
2509086.6
2509086.6
2509086.6
2509086.6
2509086.6
2509086.6
2509086.6
2509086.6
2509086.6
2509103.4
2509103.3
2509103.1
2509103
2509103
2509102.9
2509103
2509103
2509103
2509103
2509103
2509103
2509103
2509103
2509103
2509103
2509103
2509103
2509103
2509103
2509103
2509103
2509103
2509103
2509103
2509103
2509103
2509103
2509103
2509103
2509119.6
2509119.5
2509119.4
2509119.4
2509119.4
2509119.3
2509119.4
2509119.4
2509119.4
2509119.3
2509119.3
2509119.3
2509119.3
2509119.3
2509119.3
2509119.3
2509119.3
2509119.3
2509119.3
2509119.3
2509119.3
2509119.3
2509119.3
2509119.3
2509119.3
2509119.3
2509119.3
2509119.3
2509119.3
2509119.3
2509135.8
2509135.7
2509135.7
2509135.7
2509135.7
2509135.7
2509135.7
2509135.7
2509135.7
2509135.7
2509135.7
2509135.7
2509135.7
2509135.7
2509135.7
2509135.7
2509135.7
2509135.7
2509135.7
2509135.7
2509135.7
2509135.7
2509135.7
2509135.7
2509135.7
2509135.7
2509135.7
2509135.7
2509135.7
2509135.7
2509152
2509152
2509152
2509152
2509152
2509152.1
2509152.1
2509152.1
2509152.1
2509152.1
2509152.1
2509152.1
2509152
2509152
2509152
2509152
2509152
2509152
2509152
2509152
2509152
2509152
2509152
2509152
2509152
2509152
2509152
2509152
2509152
2509152
2509168.2
2509168.2
2509168.3
2509168.3
2509168.3
2509168.4
2509168.4
2509168.4
2509168.4
2509168.4
2509168.4
2509168.4
2509168.4
2509168.4
2509168.4
2509168.4
2509168.4
2509168.4
2509168.4
2509168.4
2509168.4
2509168.4
2509168.4
2509168.4
2509168.4
2509168.4
2509168.4
2509168.4
2509168.4
2509168.4
2509184.5
2509184.5
2509184.5
2509184.6
2509184.6
2509184.7
2509184.7
2509184.7
2509184.7
2509184.7
2509184.7
2509184.7
2509184.7
2509184.7
2509184.7
2509184.7
2509184.7
2509184.7
2509184.7
2509184.7
2509184.7
2509184.7
2509184.7
2509184.7
2509184.7
2509184.7
2509184.7
2509184.7
2509184.7
2509184.7
2509200.7
2509200.7
2509200.8
2509200.8
2509200.9
2509201
2509201
2509201
2509201
2509201
2509201
2509201
2509201
2509201
2509201
2509201
2509201
2509201
2509201
2509201
2509201
2509201
2509201
2509201
2509201
2509201
2509201
2509201
2509201
2509201
2509216.9
2509217
2509217
2509217.1
2509217.2
2509217.2
2509217.3
2509217.3
2509217.3
2509217.3
2509217.3
2509217.3
2509217.3
2509217.3
2509217.3
2509217.3
2509217.3
2509217.3
2509217.3
2509217.3
2509217.3
2509217.3
2509217.3
2509217.3
2509217.3
2509217.3
2509217.3
2509217.3
2509217.3
2509217.3
2509233.2
2509233.2
2509233.3
2509233.4
2509233.4
2509233.5
2509233.5
2509233.6
2509233.6
2509233.6
2509233.6
2509233.6
2509233.5
2509233.5
2509233.5
2509233.5
2509233.5
2509233.5
2509233.5
2509233.5
2509233.5
2509233.5
2509233.5
2509233.5
2509233.5
2509233.5
2509233.5
2509233.5
2509233.5
2509233.5
2509249.4
2509249.4
2509249.5
2509249.6
2509249.7
2509249.7
2509249.8
2509249.8
2509249.8
2509249.8
2509249.8
2509249.8
2509249.8
2509249.8
2509249.8
2509249.8
2509249.8
2509249.8
2509249.8
2509249.8
2509249.8
2509249.8
2509249.8
2509249.8
2509249.8
2509249.8
2509249.8
2509249.8
2509249.8
2509249.8
2509265.6
2509265.7
2509265.7
2509265.8
2509265.9
2509266
2509266
2509266.1
2509266.1
2509266
2509266
2509266
2509266
2509266
2509266
2509266
2509266
2509266
2509266
2509266
2509266
2509266
2509266
2509266
2509266
2509266
2509266
2509266
2509266
2509266
2509281.8
2509281.9
2509281.9
2509282
2509282.1
2509282.2
2509282.2
2509282.3
2509282.3
2509282.3
2509282.3
2509282.3
2509282.3
2509282.3
2509282.3
2509282.3
2509282.3
2509282.2
2509282.2
2509282.2
2509282.3
2509282.3
2509282.3
2509282.3
2509282.3
2509282.3
2509282.3
2509282.3
2509282.3
2509282.3
2509298
2509298
2509298.1
2509298.2
2509298.3
2509298.4
2509298.4
2509298.5
2509298.5
2509298.5
2509298.5
2509298.5
2509298.5
2509298.5
2509298.5
2509298.5
2509298.5
2509298.5
2509298.5
2509298.5
2509298.5
2509298.5
2509298.5
2509298.5
2509298.5
2509298.5
2509298.5
2509298.5
2509298.5
2509298.5
2509314.1
2509314.2
2509314.3
2509314.4
2509314.5
2509314.6
2509314.6
2509314.7
2509314.7
2509314.7
2509314.6
2509314.6
2509314.6
2509314.6
2509314.6
2509314.6
2509314.6
2509314.6
2509314.6
2509314.6
2509314.6
2509314.6
2509314.6
2509314.6
2509314.6
2509314.6
2509314.6
2509314.6
2509314.6
2509314.6
2509330.3
2509330.4
2509330.5
2509330.6
2509330.7
2509330.7
2509330.8
2509330.8
2509330.8
2509330.8
2509330.8
2509330.8
2509330.8
2509330.8
2509330.8
2509330.8
2509330.8
2509330.8
2509330.8
2509330.8
2509330.8
2509330.8
2509330.8
2509330.8
2509330.8
2509330.8
2509330.8
2509330.8
2509330.8
2509330.8
2509346.4
2509346.5
2509346.6
2509346.7
2509346.8
2509346.9
2509346.9
2509347
2509347
2509347
2509347
2509347
2509347
2509347
2509347
2509347
2509347
2509347
2509347
2509347
2509347
2509347
2509347
2509347
2509347
2509347
2509347
2509347
2509347
2509347
2509362.6
2509362.6
2509362.7
2509362.8
2509362.9
2509363
2509363.1
2509363.1
2509363.1
2509363.1
2509363.1
2509363.1
2509363.1
2509363.1
2509363.1
2509363.1
2509363.1
2509363.1
2509363.1
2509363.1
2509363.1
2509363.1
2509363.1
2509363.1
2509363.1
2509363.1
2509363.1
2509363.1
2509363.1
2509363.1
2509378.7
2509378.8
2509378.8
2509378.9
2509379.1
2509379.1
2509379.2
2509379.2
2509379.2
2509379.2
2509379.2
2509379.2
2509379.2
2509379.2
2509379.2
2509379.2
2509379.2
2509379.2
2509379.2
2509379.2
2509379.2
2509379.2
2509379.2
2509379.2
2509379.2
2509379.2
2509379.2
2509379.2
2509379.2
2509379.2
2509394.8
2509394.8
2509394.9
2509395
2509395.2
2509395.2
2509395.3
2509395.3
2509395.3
2509395.3
2509395.3
2509395.3
2509395.3
2509395.3
2509395.3
2509395.3
2509395.3
2509395.3
2509395.3
2509395.3
2509395.3
2509395.3
2509395.3
2509395.3
2509395.3
2509395.3
2509395.3
2509395.3
2509395.3
2509395.3
2509410.9
2509410.9
2509411
2509411.1
2509411.2
2509411.3
2509411.4
2509411.4
2509411.4
2509411.4
2509411.4
2509411.4
2509411.4
2509411.4
2509411.4
2509411.4
2509411.4
2509411.4
2509411.4
2509411.4
2509411.4
2509411.4
2509411.4
2509411.4
2509411.4
2509411.4
2509411.4
2509411.4
2509411.4
2509411.4
2509426.9
2509427
2509427.1
2509427.2
2509427.3
2509427.4
2509427.4
2509427.5
2509427.5
2509427.5
2509427.5
2509427.5
2509427.5
2509427.5
2509427.5
2509427.5
2509427.5
2509427.5
2509427.5
2509427.5
2509427.5
2509427.5
2509427.5
2509427.5
2509427.5
2509427.5
2509427.5
2509427.5
2509427.5
2509427.5
2509443
2509443
2509443.1
2509443.2
2509443.3
2509443.4
2509443.5
2509443.5
2509443.5
2509443.5
2509443.5
2509443.5
2509443.5
2509443.5
2509443.5
2509443.5
2509443.5
2509443.5
2509443.5
2509443.5
2509443.5
2509443.5
2509443.5
2509443.5
2509443.5
2509443.5
2509443.5
2509443.5
2509443.5
2509443.5
2509459
2509459.1
2509459.2
2509459.3
2509459.4
2509459.5
2509459.5
2509459.6
2509459.6
2509459.6
2509459.6
2509459.6
2509459.6
2509459.6
2509459.6
2509459.6
2509459.6
2509459.6
2509459.6
2509459.6
2509459.6
2509459.6
2509459.6
2509459.6
2509459.6
2509459.6
2509459.6
2509459.6
2509459.6
2509459.6
2509475
2509475.1
2509475.2
2509475.3
2509475.4
2509475.5
2509475.5
2509475.6
2509475.6
2509475.6
2509475.6
2509475.6
2509475.6
2509475.6
2509475.6
2509475.6
2509475.6
2509475.6
2509475.6
2509475.6
2509475.6
2509475.6
2509475.6
2509475.6
2509475.6
2509475.6
2509475.6
2509475.6
2509475.6
2509475.6
2509491
2509491.1
2509491.2
2509491.3
2509491.4
2509491.5
2509491.5
2509491.6
2509491.6
2509491.6
2509491.6
2509491.6
2509491.6
2509491.6
2509491.6
2509491.6
2509491.6
2509491.6
2509491.6
2509491.6
2509491.6
2509491.6
2509491.6
2509491.6
2509491.6
2509491.6
2509491.6
2509491.6
2509491.6
2509491.6
2509507
2509507.1
2509507.2
2509507.3
2509507.4
2509507.5
2509507.5
2509507.6
2509507.6
2509507.6
2509507.6
2509507.6
2509507.6
2509507.6
2509507.6
2509507.6
2509507.6
2509507.6
2509507.6
2509507.6
2509507.6
2509507.6
2509507.6
2509507.6
2509507.6
2509507.6
2509507.6
2509507.6
2509507.6
2509507.6
2509522.9
2509523
2509523.1
2509523.2
2509523.3
2509523.4
2509523.5
2509523.5
2509523.5
2509523.5
2509523.5
2509523.5
2509523.5
2509523.5
2509523.5
2509523.5
2509523.5
2509523.5
2509523.5
2509523.5
2509523.5
2509523.5
2509523.5
2509523.5
2509523.5
2509523.5
2509523.5
2509523.5
2509523.5
2509523.5
2509538.9
2509539
2509539.1
2509539.2
2509539.3
2509539.4
2509539.4
2509539.5
2509539.5
2509539.5
2509539.5
2509539.5
2509539.5
2509539.5
2509539.5
2509539.5
2509539.5
2509539.5
2509539.5
2509539.5
2509539.5
2509539.5
2509539.5
2509539.5
2509539.5
2509539.5
2509539.5
2509539.5
2509539.5
2509539.5
2509554.8
2509554.9
2509555
2509555.1
2509555.2
2509555.3
2509555.4
2509555.4
2509555.4
2509555.4
2509555.4
2509555.4
2509555.4
2509555.4
2509555.4
2509555.4
2509555.4
2509555.4
2509555.4
2509555.4
2509555.4
2509555.4
2509555.4
2509555.4
2509555.4
2509555.4
2509555.4
2509555.4
2509555.4
2509555.4
2509570.7
2509570.8
2509570.9
2509571
2509571.1
2509571.2
2509571.3
2509571.3
2509571.3
2509571.3
2509571.3
2509571.3
2509571.3
2509571.3
2509571.3
2509571.3
2509571.3
2509571.3
2509571.3
2509571.3
2509571.3
2509571.3
2509571.3
2509571.3
2509571.3
2509571.3
2509571.3
2509571.3
2509571.3
2509571.3
2509586.6
2509586.7
2509586.8
2509586.9
2509587
2509587.1
2509587.2
2509587.2
2509587.2
2509587.2
2509587.2
2509587.2
2509587.2
2509587.2
2509587.2
2509587.2
2509587.2
2509587.2
2509587.2
2509587.2
2509587.2
2509587.2
2509587.2
2509587.2
2509587.2
2509587.2
2509587.2
2509587.2
2509587.2
2509587.2
2509602.5
2509602.5
2509602.6
2509602.8
2509602.9
2509603
2509603
2509603.1
2509603.1
2509603.1
2509603.1
2509603.1
2509603.1
2509603.1
2509603.1
2509603.1
2509603.1
2509603.1
2509603.1
2509603.1
2509603.1
2509603.1
2509603.1
2509603.1
2509603.1
2509603.1
2509603.1
2509603.1
2509603.1
2509603.1
2509618.3
2509618.4
2509618.5
2509618.6
2509618.7
2509618.8
2509618.9
2509618.9
2509618.9
2509618.9
2509618.9
2509618.9
2509618.9
2509618.9
2509618.9
2509618.9
2509618.9
2509618.9
2509618.9
2509618.9
2509618.9
2509618.9
2509618.9
2509618.9
2509618.9
2509618.9
2509618.9
2509618.9
2509618.9
2509618.9
2509634.2
2509634.2
2509634.3
2509634.5
2509634.6
2509634.7
2509634.7
2509634.8
2509634.8
2509634.8
2509634.8
2509634.8
2509634.8
2509634.8
2509634.8
2509634.8
2509634.8
2509634.8
2509634.8
2509634.8
2509634.8
2509634.8
2509634.8
2509634.8
2509634.8
2509634.8
2509634.8
2509634.8
2509634.8
2509634.8
2509650
2509650.1
2509650.2
2509650.3
2509650.4
2509650.5
2509650.5
2509650.6
2509650.6
2509650.6
2509650.6
2509650.6
2509650.6
2509650.6
2509650.6
2509650.6
2509650.6
2509650.6
2509650.6
2509650.6
2509650.6
2509650.6
2509650.6
2509650.6
2509650.6
2509650.6
2509650.6
2509650.6
2509650.6
2509650.6
2509665.8
2509665.8
2509666
2509666.1
2509666.2
2509666.3
2509666.3
2509666.4
2509666.4
2509666.4
2509666.4
2509666.4
2509666.4
2509666.4
2509666.4
2509666.4
2509666.4
2509666.4
2509666.4
2509666.4
2509666.4
2509666.4
2509666.4
2509666.4
2509666.4
2509666.4
2509666.4
2509666.4
2509666.4
2509666.4
2509681.5
2509681.6
2509681.7
2509681.8
2509682
2509682.1
2509682.1
2509682.2
2509682.2
2509682.2
2509682.2
2509682.2
2509682.2
2509682.2
2509682.2
2509682.2
2509682.2
2509682.2
2509682.2
2509682.2
2509682.2
2509682.2
2509682.2
2509682.2
2509682.2
2509682.2
2509682.2
2509682.2
2509682.2
2509682.2
2509697.3
2509697.4
2509697.5
2509697.6
2509697.7
2509697.8
2509697.9
2509697.9
2509697.9
2509697.9
2509697.9
2509697.9
2509697.9
2509697.9
2509697.9
2509697.9
2509697.9
2509697.9
2509697.9
2509697.9
2509697.9
2509697.9
2509697.9
2509697.9
2509697.9
2509697.9
2509697.9
2509697.9
2509697.9
2509697.9
2509713.1
2509713.1
2509713.2
2509713.4
2509713.5
2509713.6
2509713.6
2509713.7
2509713.7
2509713.7
2509713.7
2509713.7
2509713.7
2509713.7
2509713.7
2509713.7
2509713.7
2509713.7
2509713.7
2509713.7
2509713.7
2509713.7
2509713.7
2509713.7
2509713.7
2509713.7
2509713.7
2509713.7
2509713.7
2509713.7
2509728.8
2509728.9
2509729
2509729.1
2509729.2
2509729.3
2509729.4
2509729.4
2509729.4
2509729.4
2509729.4
2509729.4
2509729.4
2509729.4
2509729.4
2509729.4
2509729.4
2509729.4
2509729.4
2509729.4
2509729.4
2509729.4
2509729.4
2509729.4
2509729.4
2509729.4
2509729.4
2509729.4
2509729.4
2509729.4
2509744.5
2509744.6
2509744.7
2509744.8
2509744.9
2509745
2509745.1
2509745.1
2509745.1
2509745.1
2509745.1
2509745.1
2509745.1
2509745.1
2509745.1
2509745.1
2509745.1
2509745.1
2509745.1
2509745.1
2509745.1
2509745.1
2509745.1
2509745.1
2509745.1
2509745.1
2509745.1
2509745.1
2509745.1
2509745.1
2509760.2
2509760.2
2509760.4
2509760.5
2509760.6
2509760.7
2509760.8
2509760.8
2509760.8
2509760.8
2509760.8
2509760.8
2509760.8
2509760.8
2509760.8
2509760.8
2509760.8
2509760.8
2509760.8
2509760.8
2509760.8
2509760.8
2509760.8
2509760.8
2509760.8
2509760.8
2509760.8
2509760.8
2509760.8
2509760.8
2509775.8
2509775.9
2509776
2509776.1
2509776.3
2509776.4
2509776.4
2509776.5
2509776.5
2509776.5
2509776.5
2509776.5
2509776.5
2509776.5
2509776.5
2509776.5
2509776.5
2509776.5
2509776.5
2509776.5
2509776.5
2509776.5
2509776.5
2509776.5
2509776.5
2509776.5
2509776.5
2509776.5
2509776.5
2509776.5
2509791.5
2509791.6
2509791.7
2509791.8
2509791.9
2509792
2509792.1
2509792.1
2509792.1
2509792.1
2509792.1
2509792.1
2509792.1
2509792.1
2509792.1
2509792.1
2509792.1
2509792.1
2509792.1
2509792.1
2509792.1
2509792.1
2509792.1
2509792.1
2509792.1
2509792.1
2509792.1
2509792.1
2509792.1
2509792.1
2509807.1
2509807.2
2509807.3
2509807.4
2509807.5
2509807.6
2509807.7
2509807.8
2509807.8
2509807.8
2509807.8
2509807.7
2509807.7
2509807.7
2509807.7
2509807.7
2509807.7
2509807.7
2509807.7
2509807.7
2509807.7
2509807.7
2509807.7
2509807.7
2509807.7
2509807.7
2509807.7
2509807.7
2509807.7
2509807.7
2509822.7
2509822.8
2509822.9
2509823
2509823.2
2509823.3
2509823.3
2509823.4
2509823.4
2509823.4
2509823.4
2509823.4
2509823.4
2509823.4
2509823.4
2509823.4
2509823.4
2509823.4
2509823.4
2509823.4
2509823.4
2509823.4
2509823.4
2509823.4
2509823.4
2509823.4
2509823.4
2509823.4
2509823.4
2509823.4
2509838.3
2509838.4
2509838.5
2509838.6
2509838.7
2509838.8
2509838.9
2509839
2509839
2509839
2509839
2509839
2509839
2509839
2509838.9
2509838.9
2509838.9
2509838.9
2509838.9
2509838.9
2509838.9
2509838.9
2509838.9
2509838.9
2509838.9
2509838.9
2509838.9
2509838.9
2509838.9
2509838.9
2509853.9
2509854
2509854.1
2509854.2
2509854.3
2509854.4
2509854.5
2509854.5
2509854.5
2509854.5
2509854.5
2509854.5
2509854.5
2509854.5
2509854.5
2509854.5
2509854.5
2509854.5
2509854.5
2509854.5
2509854.5
2509854.5
2509854.5
2509854.5
2509854.5
2509854.5
2509854.5
2509854.5
2509854.5
2509854.5
2509869.4
2509869.5
2509869.6
2509869.8
2509869.9
2509870
2509870
2509870.1
2509870.1
2509870.1
2509870.1
2509870.1
2509870.1
2509870.1
2509870.1
2509870.1
2509870.1
2509870.1
2509870.1
2509870.1
2509870.1
2509870.1
2509870.1
2509870.1
2509870.1
2509870.1
2509870.1
2509870.1
2509870.1
2509870.1
2509885
2509885.1
2509885.2
2509885.3
2509885.4
2509885.5
2509885.6
2509885.6
2509885.6
2509885.6
2509885.6
2509885.6
2509885.6
2509885.6
2509885.6
2509885.6
2509885.6
2509885.6
2509885.6
2509885.6
2509885.6
2509885.6
2509885.6
2509885.6
2509885.6
2509885.6
2509885.6
2509885.6
2509885.6
2509885.6
2509900.5
2509900.6
2509900.7
2509900.8
2509900.9
2509901
2509901.1
2509901.1
2509901.1
2509901.1
2509901.1
2509901.1
2509901.1
2509901.1
2509901.1
2509901.1
2509901.1
2509901.1
2509901.1
2509901.1
2509901.1
2509901.1
2509901.1
2509901.1
2509901.1
2509901.1
2509901.1
2509901.1
2509901.1
2509901.1
2509916
2509916.1
2509916.2
2509916.3
2509916.4
2509916.5
2509916.6
2509916.6
2509916.6
2509916.6
2509916.6
2509916.6
2509916.6
2509916.6
2509916.6
2509916.6
2509916.6
2509916.6
2509916.6
2509916.6
2509916.6
2509916.6
2509916.6
2509916.6
2509916.6
2509916.6
2509916.6
2509916.6
2509916.6
2509916.6
2509931.5
2509931.5
2509931.7
2509931.8
2509931.9
2509932
2509932.1
2509932.1
2509932.1
2509932.1
2509932.1
2509932.1
2509932.1
2509932.1
2509932.1
2509932.1
2509932.1
2509932.1
2509932.1
2509932.1
2509932.1
2509932.1
2509932.1
2509932.1
2509932.1
2509932.1
2509932.1
2509932.1
2509932.1
2509932.1
2509946.9
2509947
2509947.1
2509947.2
2509947.3
2509947.5
2509947.5
2509947.6
2509947.6
2509947.6
2509947.6
2509947.6
2509947.6
2509947.6
2509947.6
2509947.6
2509947.6
2509947.6
2509947.6
2509947.6
2509947.6
2509947.6
2509947.6
2509947.6
2509947.6
2509947.6
2509947.6
2509947.6
2509947.6
2509947.6
2509962.3
2509962.4
2509962.5
2509962.7
2509962.8
2509962.9
2509963
2509963
2509963
2509963
2509963
2509963
2509963
2509963
2509963
2509963
2509963
2509963
2509963
2509963
2509963
2509963
2509963
2509963
2509963
2509963
2509963
2509963
2509963
2509963
2509977.8
2509977.8
2509978
2509978.1
2509978.2
2509978.3
2509978.4
2509978.4
2509978.4
2509978.4
2509978.4
2509978.4
2509978.4
2509978.4
2509978.4
2509978.4
2509978.4
2509978.4
2509978.4
2509978.4
2509978.4
2509978.4
2509978.4
2509978.4
2509978.4
2509978.4
2509978.4
2509978.4
2509978.4
2509978.4
2509993.1
2509993.2
2509993.4
2509993.5
2509993.6
2509993.7
2509993.8
2509993.8
2509993.8
2509993.8
2509993.8
2509993.8
2509993.8
2509993.8
2509993.8
2509993.8
2509993.8
2509993.8
2509993.8
2509993.8
2509993.8
2509993.8
2509993.8
2509993.8
2509993.8
2509993.8
2509993.8
2509993.8
2509993.8
2509993.8
2510008.5
2510008.6
2510008.7
2510008.8
2510009
2510009.1
2510009.1
2510009.2
2510009.2
2510009.2
2510009.2
2510009.2
2510009.2
2510009.2
2510009.2
2510009.2
2510009.2
2510009.2
2510009.2
2510009.2
2510009.2
2510009.2
2510009.2
2510009.2
2510009.2
2510009.2
2510009.2
2510009.2
2510009.2
2510009.2
2510023.9
2510024
2510024.1
2510024.2
2510024.3
2510024.4
2510024.5
2510024.5
2510024.6
2510024.6
2510024.5
2510024.5
2510024.5
2510024.5
2510024.5
2510024.5
2510024.5
2510024.5
2510024.5
2510024.5
2510024.5
2510024.5
2510024.5
2510024.5
2510024.5
2510024.5
2510024.5
2510024.5
2510024.5
2510024.5
2510039.2
2510039.3
2510039.4
2510039.5
2510039.7
2510039.8
2510039.8
2510039.9
2510039.9
2510039.9
2510039.9
2510039.9
2510039.9
2510039.9
2510039.9
2510039.9
2510039.9
2510039.9
2510039.9
2510039.9
2510039.9
2510039.9
2510039.9
2510039.9
2510039.9
2510039.9
2510039.9
2510039.9
2510039.9
2510039.9
2510054.5
2510054.6
2510054.7
2510054.8
2510055
2510055.1
2510055.2
2510055.2
2510055.2
2510055.2
2510055.2
2510055.2
2510055.2
2510055.2
2510055.2
2510055.2
2510055.2
2510055.2
2510055.2
2510055.2
2510055.2
2510055.2
2510055.2
2510055.2
2510055.2
2510055.2
2510055.2
2510055.2
2510055.2
2510055.2
2510069.8
2510069.9
2510070
2510070.1
2510070.3
2510070.4
2510070.5
2510070.5
2510070.5
2510070.5
2510070.5
2510070.5
2510070.5
2510070.5
2510070.5
2510070.5
2510070.5
2510070.5
2510070.5
2510070.5
2510070.5
2510070.5
2510070.5
2510070.5
2510070.5
2510070.5
2510070.5
2510070.5
2510070.5
2510070.5
2510085.1
2510085.2
2510085.3
2510085.4
2510085.5
2510085.7
2510085.7
2510085.8
2510085.8
2510085.8
2510085.8
2510085.8
2510085.8
2510085.8
2510085.8
2510085.8
2510085.8
2510085.8
2510085.8
2510085.8
2510085.8
2510085.8
2510085.8
2510085.8
2510085.8
2510085.8
2510085.8
2510085.8
2510085.8
2510085.8
2510100.3
2510100.4
2510100.6
2510100.7
2510100.8
2510100.9
2510101
2510101
2510101
2510101
2510101
2510101
2510101
2510101
2510101
2510101
2510101
2510101
2510101
2510101
2510101
2510101
2510101
2510101
2510101
2510101
2510101
2510101
2510101
2510101
2510115.6
2510115.7
2510115.8
2510115.9
2510116
2510116.1
2510116.2
2510116.3
2510116.3
2510116.3
2510116.3
2510116.3
2510116.3
2510116.3
2510116.3
2510116.2
2510116.2
2510116.2
2510116.2
2510116.2
2510116.2
2510116.2
2510116.2
2510116.2
2510116.2
2510116.2
2510116.2
2510116.2
2510116.2
2510116.2
2510130.8
2510130.9
2510131
2510131.1
2510131.2
2510131.4
2510131.4
2510131.5
2510131.5
2510131.5
2510131.5
2510131.5
2510131.5
2510131.5
2510131.5
2510131.5
2510131.5
2510131.5
2510131.5
2510131.5
2510131.5
2510131.5
2510131.5
2510131.5
2510131.5
2510131.5
2510131.5
2510131.5
2510131.5
2510131.5
2510146
2510146.1
2510146.2
2510146.3
2510146.4
2510146.5
2510146.6
2510146.7
2510146.7
2510146.7
2510146.7
2510146.7
2510146.7
2510146.7
2510146.7
2510146.7
2510146.7
2510146.7
2510146.7
2510146.7
2510146.7
2510146.7
2510146.7
2510146.7
2510146.7
2510146.7
2510146.7
2510146.7
2510146.7
2510146.7
2510161.2
2510161.2
2510161.4
2510161.5
2510161.6
2510161.7
2510161.8
2510161.8
2510161.9
2510161.8
2510161.8
2510161.8
2510161.8
2510161.8
2510161.8
2510161.8
2510161.8
2510161.8
2510161.8
2510161.8
2510161.8
2510161.8
2510161.8
2510161.8
2510161.8
2510161.8
2510161.8
2510161.8
2510161.8
2510161.8
2510176.3
2510176.4
2510176.5
2510176.6
2510176.8
2510176.9
2510176.9
2510177
2510177
2510177
2510177
2510177
2510177
2510177
2510177
2510177
2510177
2510177
2510177
2510177
2510177
2510177
2510177
2510177
2510177
2510177
2510177
2510177
2510177
2510177
2510191.4
2510191.5
2510191.6
2510191.8
2510191.9
2510192
2510192.1
2510192.1
2510192.1
2510192.1
2510192.1
2510192.1
2510192.1
2510192.1
2510192.1
2510192.1
2510192.1
2510192.1
2510192.1
2510192.1
2510192.1
2510192.1
2510192.1
2510192.1
2510192.1
2510192.1
2510192.1
2510192.1
2510192.1
2510192.1
2510206.5
2510206.6
2510206.8
2510206.9
2510207
2510207.1
2510207.2
2510207.2
2510207.2
2510207.2
2510207.2
2510207.2
2510207.2
2510207.2
2510207.2
2510207.2
2510207.2
2510207.2
2510207.2
2510207.2
2510207.2
2510207.2
2510207.2
2510207.2
2510207.2
2510207.2
2510207.2
2510207.2
2510207.2
2510207.2
2510221.6
2510221.7
2510221.8
2510222
2510222.1
2510222.2
2510222.3
2510222.3
2510222.3
2510222.3
2510222.3
2510222.3
2510222.3
2510222.3
2510222.3
2510222.3
2510222.3
2510222.3
2510222.3
2510222.3
2510222.3
2510222.3
2510222.3
2510222.3
2510222.3
2510222.3
2510222.3
2510222.3
2510222.3
2510222.3
2510236.7
2510236.8
2510236.9
2510237
2510237.2
2510237.3
2510237.3
2510237.4
2510237.4
2510237.4
2510237.4
2510237.4
2510237.4
2510237.4
2510237.4
2510237.4
2510237.4
2510237.4
2510237.4
2510237.4
2510237.4
2510237.4
2510237.4
2510237.4
2510237.4
2510237.4
2510237.4
2510237.4
2510237.4
2510237.4
2510251.7
2510251.8
2510252
2510252.1
2510252.2
2510252.3
2510252.4
2510252.4
2510252.5
2510252.4
2510252.4
2510252.4
2510252.4
2510252.4
2510252.4
2510252.4
2510252.4
2510252.4
2510252.4
2510252.4
2510252.4
2510252.4
2510252.4
2510252.4
2510252.4
2510252.4
2510252.4
2510252.4
2510252.4
2510252.4
2510266.8
2510266.9
2510267
2510267.1
2510267.2
2510267.3
2510267.4
2510267.5
2510267.5
2510267.5
2510267.5
2510267.5
2510267.5
2510267.5
2510267.5
2510267.5
2510267.5
2510267.5
2510267.5
2510267.5
2510267.5
2510267.5
2510267.5
2510267.5
2510267.5
2510267.5
2510267.5
2510267.5
2510267.5
2510267.5
2510281.8
2510281.9
2510282
2510282.1
2510282.2
2510282.3
2510282.4
2510282.5
2510282.5
2510282.5
2510282.5
2510282.5
2510282.5
2510282.5
2510282.5
2510282.5
2510282.5
2510282.5
2510282.5
2510282.5
2510282.5
2510282.5
2510282.5
2510282.5
2510282.5
2510282.5
2510282.5
2510282.5
2510282.5
2510282.5
2510296.8
2510296.9
2510297
2510297.1
2510297.2
2510297.3
2510297.4
2510297.5
2510297.5
2510297.5
2510297.5
2510297.5
2510297.5
2510297.4
2510297.4
2510297.4
2510297.4
2510297.4
2510297.4
2510297.4
2510297.4
2510297.4
2510297.4
2510297.4
2510297.4
2510297.4
2510297.4
2510297.4
2510297.4
2510297.4
2510311.7
2510311.8
2510311.9
2510312.1
2510312.2
2510312.3
2510312.4
2510312.4
2510312.4
2510312.4
2510312.4
2510312.4
2510312.4
2510312.4
2510312.4
2510312.4
2510312.4
2510312.4
2510312.4
2510312.4
2510312.4
2510312.4
2510312.4
2510312.4
2510312.4
2510312.4
2510312.4
2510312.4
2510312.4
2510312.4
2510326.7
2510326.8
2510326.9
2510327
2510327.1
2510327.2
2510327.3
2510327.4
2510327.4
2510327.4
2510327.4
2510327.4
2510327.4
2510327.4
2510327.4
2510327.4
2510327.4
2510327.4
2510327.4
2510327.4
2510327.4
2510327.4
2510327.4
2510327.4
2510327.4
2510327.4
2510327.4
2510327.4
2510327.4
2510327.4
2510341.6
2510341.7
2510341.8
2510341.9
2510342.1
2510342.2
2510342.2
2510342.3
2510342.3
2510342.3
2510342.3
2510342.3
2510342.3
2510342.3
2510342.3
2510342.3
2510342.3
2510342.3
2510342.3
2510342.3
2510342.3
2510342.3
2510342.3
2510342.3
2510342.3
2510342.3
2510342.3
2510342.3
2510342.3
2510342.3
2510356.5
2510356.6
2510356.7
2510356.8
2510357
2510357.1
2510357.1
2510357.2
2510357.2
2510357.2
2510357.2
2510357.2
2510357.2
2510357.2
2510357.2
2510357.2
2510357.2
2510357.2
2510357.2
2510357.2
2510357.2
2510357.2
2510357.2
2510357.2
2510357.2
2510357.2
2510357.2
2510357.2
2510357.2
2510357.2
2510371.4
2510371.5
2510371.6
2510371.7
2510371.8
2510371.9
2510372
2510372.1
2510372.1
2510372.1
2510372.1
2510372.1
2510372.1
2510372.1
2510372.1
2510372.1
2510372.1
2510372.1
2510372.1
2510372.1
2510372.1
2510372.1
2510372.1
2510372.1
2510372.1
2510372.1
2510372.1
2510372.1
2510372.1
2510372.1
2510386.2
2510386.3
2510386.4
2510386.5
2510386.7
2510386.8
2510386.9
2510386.9
2510386.9
2510386.9
2510386.9
2510386.9
2510386.9
2510386.9
2510386.9
2510386.9
2510386.9
2510386.9
2510386.9
2510386.9
2510386.9
2510386.9
2510386.9
2510386.9
2510386.9
2510386.9
2510386.9
2510386.9
2510386.9
2510386.9
2510401
2510401.1
2510401.3
2510401.4
2510401.5
2510401.6
2510401.7
2510401.8
2510401.8
2510401.8
2510401.8
2510401.8
2510401.7
2510401.7
2510401.7
2510401.7
2510401.7
2510401.7
2510401.7
2510401.7
2510401.7
2510401.7
2510401.7
2510401.7
2510401.7
2510401.7
2510401.7
2510401.7
2510401.7
2510401.7
2510415.9
2510416
2510416.1
2510416.2
2510416.3
2510416.4
2510416.5
2510416.6
2510416.6
2510416.6
2510416.6
2510416.6
2510416.6
2510416.6
2510416.6
2510416.6
2510416.6
2510416.6
2510416.6
2510416.6
2510416.6
2510416.6
2510416.6
2510416.6
2510416.6
2510416.6
2510416.6
2510416.6
2510416.6
2510416.6
2510430.6
2510430.7
2510430.9
2510431
2510431.1
2510431.2
2510431.3
2510431.4
2510431.4
2510431.4
2510431.4
2510431.4
2510431.4
2510431.4
2510431.3
2510431.3
2510431.3
2510431.3
2510431.3
2510431.3
2510431.3
2510431.3
2510431.3
2510431.3
2510431.3
2510431.3
2510431.3
2510431.3
2510431.3
2510431.3
2510445.4
2510445.5
2510445.6
2510445.8
2510445.9
2510446
2510446.1
2510446.1
2510446.1
2510446.1
2510446.1
2510446.1
2510446.1
2510446.1
2510446.1
2510446.1
2510446.1
2510446.1
2510446.1
2510446.1
2510446.1
2510446.1
2510446.1
2510446.1
2510446.1
2510446.1
2510446.1
2510446.1
2510446.1
2510446.1
2510460.2
2510460.3
2510460.4
2510460.5
2510460.6
2510460.8
2510460.8
2510460.9
2510460.9
2510460.9
2510460.9
2510460.9
2510460.9
2510460.9
2510460.9
2510460.9
2510460.9
2510460.9
2510460.9
2510460.9
2510460.9
2510460.9
2510460.9
2510460.9
2510460.9
2510460.9
2510460.9
2510460.9
2510460.9
2510460.9
2510474.9
2510475
2510475.1
2510475.2
2510475.4
2510475.5
2510475.6
2510475.6
2510475.6
2510475.6
2510475.6
2510475.6
2510475.6
2510475.6
2510475.6
2510475.6
2510475.6
2510475.6
2510475.6
2510475.6
2510475.6
2510475.6
2510475.6
2510475.6
2510475.6
2510475.6
2510475.6
2510475.6
2510475.6
2510475.6
2510489.6
2510489.7
2510489.8
2510489.9
2510490.1
2510490.2
2510490.3
2510490.3
2510490.3
2510490.3
2510490.3
2510490.3
2510490.3
2510490.3
2510490.3
2510490.3
2510490.3
2510490.3
2510490.3
2510490.3
2510490.3
2510490.3
2510490.3
2510490.3
2510490.3
2510490.3
2510490.3
2510490.3
2510490.3
2510490.3
2510504.3
2510504.4
2510504.5
2510504.6
2510504.8
2510504.9
2510504.9
2510505
2510505
2510505
2510505
2510505
2510505
2510505
2510505
2510505
2510505
2510505
2510505
2510505
2510505
2510505
2510505
2510505
2510505
2510505
2510505
2510505
2510505
2510505
2510518.9
2510519
2510519.2
2510519.3
2510519.4
2510519.5
2510519.6
2510519.7
2510519.7
2510519.7
2510519.7
2510519.7
2510519.7
2510519.6
2510519.6
2510519.6
2510519.6
2510519.6
2510519.6
2510519.6
2510519.6
2510519.6
2510519.6
2510519.6
2510519.6
2510519.6
2510519.6
2510519.6
2510519.6
2510519.6
2510533.6
2510533.7
2510533.8
2510533.9
2510534.1
2510534.2
2510534.2
2510534.3
2510534.3
2510534.3
2510534.3
2510534.3
2510534.3
2510534.3
2510534.3
2510534.3
2510534.3
2510534.3
2510534.3
2510534.3
2510534.3
2510534.3
2510534.3
2510534.3
2510534.3
2510534.3
2510534.3
2510534.3
2510534.3
2510534.3
2510548.2
2510548.3
2510548.4
2510548.5
2510548.7
2510548.8
2510548.9
2510548.9
2510548.9