/*--------------------------------*- C++ -*----------------------------------*\
| =========                 |                                                 |
| \\      /  F ield         | OpenFOAM: The Open Source CFD Toolbox           |
|  \\    /   O peration     | Version:  v2012                                 |
|   \\  /    A nd           | Website:  www.openfoam.com                      |
|    \\/     M anipulation  |                                                 |
\*---------------------------------------------------------------------------*/
FoamFile
{
    version     2.0;
    format      ascii;
    class       surfaceScalarField;
    location    "250";
    object      phi;
}
// * * * * * * * * * * * * * * * * * * * * * * * * * * * * * * * * * * * * * //

dimensions      [1 0 -1 0 0 0 0];
oriented        oriented;


internalField   nonuniform List<scalar> 
47170
(
3.0006661e-09
-3.7183357e-05
6.5842518e-09
-3.0905358e-05
9.4250937e-09
-2.5150714e-05
1.1952003e-08
-2.0472947e-05
1.433429e-08
-1.6532677e-05
1.438222e-08
-1.2941671e-05
8.1186038e-09
-9.549197e-06
-5.5805531e-09
-6.3919454e-06
-1.5828534e-08
-3.8580393e-06
-1.7948375e-08
-2.3114791e-06
-1.6481579e-08
-1.4811926e-06
-1.4305787e-08
-1.0094481e-06
-1.2124538e-08
-7.0524792e-07
-1.007934e-08
-4.9400327e-07
-8.2222096e-09
-3.4594894e-07
-6.5931837e-09
-2.4094797e-07
-5.2058402e-09
-1.6674351e-07
-4.0541211e-09
-1.1462964e-07
-3.1067946e-09
-7.8265711e-08
-2.3323733e-09
-5.305612e-08
-1.7027302e-09
-3.5688768e-08
-1.2010073e-09
-2.3786474e-08
-8.1187421e-10
-1.5668471e-08
-5.2167056e-10
-1.0160614e-08
-3.1415864e-10
-6.4477827e-09
-1.7345138e-10
-3.9657523e-09
-8.3972392e-11
-2.3246239e-09
-3.2240419e-11
-1.2553646e-09
-7.0620568e-12
-5.7266198e-10
-1.4904787e-10
2.2726627e-09
-3.718563e-05
4.2727867e-09
-3.0907359e-05
4.880458e-09
-2.5151322e-05
4.4811821e-09
-2.0472547e-05
3.1262194e-09
-1.6531322e-05
4.3215491e-10
-1.2938977e-05
-3.2172622e-09
-9.5455473e-06
-6.0319143e-09
-6.3891309e-06
-6.0903578e-09
-3.8579803e-06
-5.5319298e-09
-2.3120377e-06
-5.04722e-09
-1.4816766e-06
-4.5951755e-09
-1.0099004e-06
-4.1217332e-09
-7.0572064e-07
-3.6810982e-09
-4.9444411e-07
-3.2633274e-09
-3.4636601e-07
-2.8650913e-09
-2.413464e-07
-2.4671299e-09
-1.6714087e-07
-2.066444e-09
-1.1503044e-07
-1.670888e-09
-7.8660808e-08
-1.2992859e-09
-5.3427783e-08
-9.6831848e-10
-3.6019433e-08
-6.9017937e-10
-2.4064606e-08
-4.6833648e-10
-1.5890132e-08
-3.0058702e-10
-1.0328307e-08
-1.8010815e-10
-6.5681564e-09
-9.8479291e-11
-4.0473415e-09
-4.6867443e-11
-2.3761559e-09
-1.7445062e-11
-1.2847359e-09
-3.6048281e-12
-5.8646605e-10
-1.5265269e-10
1.7883724e-09
-3.7187418e-05
2.9954876e-09
-3.0908566e-05
2.8562204e-09
-2.5151182e-05
1.8959211e-09
-2.0471587e-05
3.5766339e-10
-1.6529784e-05
-1.641061e-09
-1.2936978e-05
-3.0806148e-09
-9.5441075e-06
-2.7598847e-09
-6.3894518e-06
-1.8230372e-09
-3.8589168e-06
-1.3663232e-09
-2.3124947e-06
-1.0687695e-09
-1.4819737e-06
-7.846214e-10
-1.0101848e-06
-4.8092776e-10
-7.0602394e-07
-1.8388217e-10
-4.9474146e-07
8.9138265e-11
-3.4663864e-07
3.0667488e-10
-2.4156415e-07
4.4842178e-10
-1.6728224e-07
5.0990604e-10
-1.1509207e-07
5.0355783e-10
-7.8654143e-08
4.4874935e-10
-5.3373025e-08
3.684737e-10
-3.5938922e-08
2.8137244e-10
-2.397751e-08
2.0095398e-10
-1.5809557e-08
1.338784e-10
-1.0261214e-08
8.2573891e-11
-6.5167631e-09
4.6138598e-11
-4.0108761e-09
2.2367259e-11
-2.3523402e-09
8.4719866e-12
-1.2708063e-09
1.7976171e-12
-5.7976736e-10
-1.5085507e-10
1.2791823e-09
-3.7188697e-05
1.8544603e-09
-3.0909141e-05
1.2577139e-09
-2.5150586e-05
5.3048258e-11
-2.0470382e-05
-1.3845942e-09
-1.6528346e-05
-2.6552251e-09
-1.2935707e-05
-2.7950204e-09
-9.5439676e-06
-1.5562035e-09
-6.3906908e-06
-4.2592724e-10
-3.8600469e-06
-7.789599e-11
-2.3128429e-06
-6.9264798e-12
-1.4820445e-06
-2.2576949e-11
-1.0101694e-06
-5.757198e-11
-7.0598867e-07
-9.0826382e-11
-4.9470844e-07
-1.1289207e-10
-3.4661628e-07
-1.2714895e-10
-2.4155008e-07
-1.3770913e-10
-1.6727138e-07
-1.419997e-10
-1.1508785e-07
-1.3645425e-10
-7.8659425e-08
-1.2195516e-10
-5.3387528e-08
-1.0107584e-10
-3.5959607e-08
-7.8168854e-11
-2.4000367e-08
-5.6392156e-11
-1.5831209e-08
-3.7955836e-11
-1.0279587e-08
-2.3605479e-11
-6.5310382e-09
-1.3329162e-11
-4.0211177e-09
-6.5168157e-12
-2.3590923e-09
-2.4913546e-12
-1.2747918e-09
-5.267718e-13
-5.8170365e-10
-1.5138184e-10
8.5202089e-10
-3.7189549e-05
1.0234866e-09
-3.0909313e-05
2.2438586e-10
-2.5149787e-05
-9.8318514e-10
-2.0469175e-05
-2.1978837e-09
-1.6527131e-05
-2.9664224e-09
-1.2934939e-05
-2.5516749e-09
-9.5443822e-06
-1.0481053e-09
-6.3921945e-06
1.8817015e-10
-3.8612829e-06
5.2391215e-10
-2.3131789e-06
5.3283384e-10
-1.4820532e-06
4.5232611e-10
-1.0100892e-06
3.5772841e-10
-7.0589385e-07
2.7779513e-10
-4.9462873e-07
2.1717094e-10
-3.4655542e-07
1.7121854e-10
-2.4150431e-07
1.3653962e-10
-1.6723645e-07
1.0856978e-10
-1.1506003e-07
8.553342e-11
-7.8636166e-08
6.5458786e-11
-5.336755e-08
4.8585313e-11
-3.5942557e-08
3.4418083e-11
-2.3986262e-08
2.337047e-11
-1.5820037e-08
1.4921474e-11
-1.0271156e-08
8.9508273e-12
-6.5249951e-09
4.8745076e-12
-4.0170252e-09
2.3232763e-12
-2.3565064e-09
8.7100133e-13
-1.2733132e-09
1.8764836e-13
-5.8100169e-10
-1.5119419e-10
5.0912043e-10
-3.7190059e-05
4.1071695e-10
-3.0909214e-05
-4.8142711e-10
-2.5148894e-05
-1.642433e-09
-2.0468014e-05
-2.6909366e-09
-1.6526083e-05
-3.1862269e-09
-1.2934444e-05
-2.5283954e-09
-9.54504e-06
-9.235734e-10
-6.3937995e-06
4.0970786e-10
-3.8626161e-06
7.416239e-10
-2.313511e-06
7.1846058e-10
-1.4820298e-06
6.0301888e-10
-1.0099739e-06
4.7121531e-10
-7.0576186e-07
3.5327145e-10
-4.9451097e-07
2.5814355e-10
-3.4646008e-07
1.8388096e-10
-2.4143021e-07
1.2817646e-10
-1.6718053e-07
8.7000303e-11
-1.1501896e-07
5.7824341e-11
-7.8606794e-08
3.7342354e-11
-5.3347123e-08
2.3657976e-11
-3.5928725e-08
1.4514536e-11
-2.3977117e-08
8.6937882e-12
-1.5814119e-08
4.9755766e-12
-1.0267406e-08
2.715486e-12
-6.5226754e-09
1.3463276e-12
-4.015635e-09
5.9985866e-13
-2.3557123e-09
2.1218793e-13
-1.2728951e-09
4.742898e-14
-5.8081537e-10
-1.5114677e-10
2.4292408e-10
-3.7190302e-05
-3.615176e-11
-3.0908935e-05
-9.7140427e-10
-2.5147959e-05
-2.0838667e-09
-2.0466901e-05
-3.0274661e-09
-1.6525139e-05
-3.3754832e-09
-1.2934096e-05
-2.5931246e-09
-9.5458223e-06
-9.233145e-10
-6.3954695e-06
4.6721856e-10
-3.8640065e-06
8.1438688e-10
-2.3138584e-06
7.9044657e-10
-1.4820057e-06
6.6892971e-10
-1.0098526e-06
5.2803452e-10
-7.0562079e-07
3.9986076e-10
-4.9438297e-07
2.9521929e-10
-3.4635525e-07
2.1317853e-10
-2.4134829e-07
1.513814e-10
-1.6711854e-07
1.0554149e-10
-1.149732e-07
7.2571811e-11
-7.8573655e-08
4.8912549e-11
-5.3323494e-08
3.2425481e-11
-3.591211e-08
2.0893584e-11
-2.3965595e-08
1.3116489e-11
-1.5806256e-08
7.8626756e-12
-1.0262147e-08
4.4841063e-12
-6.5192494e-09
2.3410828e-12
-4.0134816e-09
1.081341e-12
-2.354428e-09
3.9579612e-13
-1.2721925e-09
8.4576725e-14
-5.8049212e-10
-1.5106219e-10
3.8382285e-11
-3.719034e-05
-3.6673769e-10
-3.090853e-05
-1.3248264e-09
-2.5147001e-05
-2.4036842e-09
-2.0465822e-05
-3.2860702e-09
-1.6524257e-05
-3.5536565e-09
-1.2933828e-05
-2.6970955e-09
-9.5466788e-06
-9.7578557e-10
-6.3971909e-06
4.4750488e-10
-3.8654297e-06
8.1887081e-10
-2.3142299e-06
8.0463669e-10
-1.4819914e-06
6.8558684e-10
-1.0097337e-06
5.4355931e-10
-7.0547861e-07
4.1252203e-10
-4.9425207e-07
3.0448177e-10
-3.4624704e-07
2.1931354e-10
-2.4126323e-07
1.5495429e-10
-1.67054e-07
1.0730503e-10
-1.1492558e-07
7.3104547e-11
-7.8539298e-08
4.8784289e-11
-5.3299169e-08
3.196413e-11
-3.5895178e-08
2.0403134e-11
-2.3953996e-08
1.2657903e-11
-1.5798443e-08
7.5392784e-12
-1.0256987e-08
4.255375e-12
-6.5159267e-09
2.2103613e-12
-4.0114141e-09
1.0156875e-12
-2.3532054e-09
3.7030279e-13
-1.2715281e-09
7.9435442e-14
-5.8018774e-10
-1.5098275e-10
-1.1910082e-10
-3.7190221e-05
-6.1560209e-10
-3.0908034e-05
-1.5890203e-09
-2.5146028e-05
-2.6485207e-09
-2.0464763e-05
-3.4963476e-09
-1.6523409e-05
-3.7168999e-09
-1.2933608e-05
-2.8105298e-09
-9.5475851e-06
-1.0455647e-09
-6.398956e-06
3.9788591e-10
-3.8668731e-06
7.9646349e-10
-2.3146286e-06
7.9605102e-10
-1.4819909e-06
6.833434e-10
-1.0096212e-06
5.4412913e-10
-7.0533926e-07
4.1409282e-10
-4.9412219e-07
3.0615091e-10
-3.4613895e-07
2.2074542e-10
-2.4117796e-07
1.5608145e-10
-1.6698919e-07
1.0809342e-10
-1.1487773e-07
7.3700234e-11
-7.8504766e-08
4.9163718e-11
-5.3274726e-08
3.2269486e-11
-3.5878169e-08
2.0553802e-11
-2.3942346e-08
1.2792042e-11
-1.5790597e-08
7.5860412e-12
-1.0251807e-08
4.2993357e-12
-6.5125907e-09
2.2314509e-12
-4.0093382e-09
1.025384e-12
-2.3519774e-09
3.7426475e-13
-1.2708603e-09
7.9943752e-14
-5.7988167e-10
-1.5090281e-10
-2.4156572e-10
-3.718998e-05
-8.0688583e-10
-3.0907469e-05
-1.7933098e-09
-2.5145041e-05
-2.8433008e-09
-2.0463713e-05
-3.6719072e-09
-1.652258e-05
-3.8628239e-09
-1.2933417e-05
-2.9203762e-09
-9.5485275e-06
-1.1192306e-09
-6.4007573e-06
3.3888533e-10
-3.8683311e-06
7.6397562e-10
-2.3150538e-06
7.7791909e-10
-1.4820047e-06
6.7250238e-10
-1.0095159e-06
5.3726142e-10
-7.0520391e-07
4.0953538e-10
-4.939946e-07
3.0291755e-10
-3.460322e-07
2.1833107e-10
-2.410935e-07
1.5419996e-10
-1.6692491e-07
1.0665606e-10
-1.1483027e-07
7.2571302e-11
-7.8470548e-08
4.8326835e-11
-5.3250537e-08
3.1626323e-11
-3.5861366e-08
2.0131276e-11
-2.3930859e-08
1.2479253e-11
-1.5782875e-08
7.4081843e-12
-1.0246717e-08
4.1788291e-12
-6.5093176e-09
2.1578288e-12
-4.0073037e-09
9.9185258e-13
-2.3507749e-09
3.6146481e-13
-1.2702068e-09
7.8286249e-14
-5.795821e-10
-1.5082452e-10
-3.3845567e-10
-3.7189641e-05
-9.5724922e-10
-3.090685e-05
-1.9559572e-09
-2.5144043e-05
-3.0021195e-09
-2.0462667e-05
-3.8200505e-09
-1.6521762e-05
-3.9911081e-09
-1.2933246e-05
-3.0217168e-09
-9.5494969e-06
-1.1903333e-09
-6.4025888e-06
2.8013868e-10
-3.8698015e-06
7.2973625e-10
-2.3155036e-06
7.5711262e-10
-1.482032e-06
6.5888749e-10
-1.0094178e-06
5.2790202e-10
-7.0507281e-07
4.0291464e-10
-4.9386975e-07
2.9813139e-10
-3.4592729e-07
2.1487278e-10
-2.4101035e-07
1.516829e-10
-1.6686159e-07
1.0486175e-10
-1.1478353e-07
7.1301461e-11
-7.8436865e-08
4.7482591e-11
-5.3226751e-08
3.107218e-11
-3.5844859e-08
1.9786818e-11
-2.3919587e-08
1.2282105e-11
-1.5775305e-08
7.2968764e-12
-1.0241731e-08
4.1292088e-12
-6.5061137e-09
2.1463759e-12
-4.0053132e-09
9.8779096e-13
-2.3495987e-09
3.6090253e-13
-1.2695676e-09
7.6595848e-14
-5.7928906e-10
-1.5074792e-10
-4.1652641e-10
-3.7189225e-05
-1.0784695e-09
-3.0906188e-05
-2.0885641e-09
-2.5143032e-05
-3.1339343e-09
-2.0461622e-05
-3.945852e-09
-1.652095e-05
-4.1028997e-09
-1.2933089e-05
-3.1131109e-09
-9.5504867e-06
-1.2560864e-09
-6.4044459e-06
2.2498616e-10
-3.8712825e-06
6.9698137e-10
-2.3159757e-06
7.3639533e-10
-1.4820713e-06
6.4476672e-10
-1.0093263e-06
5.1784958e-10
-7.049458e-07
3.9560866e-10
-4.9374762e-07
2.927384e-10
-3.458243e-07
2.1088132e-10
-2.4092858e-07
1.4872337e-10
-1.667993e-07
1.0272957e-10
-1.1473756e-07
6.9756338e-11
-7.8403775e-08
4.641049e-11
-5.3203406e-08
3.031426e-11
-3.5828677e-08
1.9303389e-11
-2.3908549e-08
1.1950571e-11
-1.5767899e-08
7.1077977e-12
-1.0236856e-08
4.0087851e-12
-6.5029835e-09
2.081781e-12
-4.0033693e-09
9.573133e-13
-2.3484504e-09
3.4947101e-13
-1.2689435e-09
7.4821575e-14
-5.7900294e-10
-1.506731e-10
-4.8060482e-10
-3.7188744e-05
-1.1783412e-09
-3.090549e-05
-2.1989298e-09
-2.5142012e-05
-3.2450359e-09
-2.0460576e-05
-4.0533442e-09
-1.6520142e-05
-4.1999526e-09
-1.2932942e-05
-3.1945004e-09
-9.5514921e-06
-1.3161824e-09
-6.4063243e-06
1.7441337e-10
-3.8727731e-06
6.6686072e-10
-2.3164683e-06
7.1703689e-10
-1.4821214e-06
6.314133e-10
-1.0092408e-06
5.0827337e-10
-7.0482257e-07
3.886454e-10
-4.9362812e-07
2.8766014e-10
-3.4572322e-07
2.0721022e-10
-2.4084824e-07
1.4611562e-10
-1.667381e-07
1.0086829e-10
-1.1469242e-07
6.8497285e-11
-7.8371303e-08
4.5535457e-11
-5.3180519e-08
2.9772205e-11
-3.5812829e-08
1.8917692e-11
-2.3897748e-08
1.1739786e-11
-1.5760658e-08
6.9566422e-12
-1.0232094e-08
3.9370878e-12
-6.4999269e-09
2.0449435e-12
-4.0014719e-09
9.4059055e-13
-2.3473298e-09
3.4367324e-13
-1.2683347e-09
7.2988159e-14
-5.787238e-10
-1.5060011e-10
-5.3416027e-10
-3.718821e-05
-1.2623814e-09
-3.0904762e-05
-2.2924109e-09
-2.5140982e-05
-3.3399703e-09
-2.0459528e-05
-4.1458097e-09
-1.6519336e-05
-4.2843199e-09
-1.2932804e-05
-3.2668279e-09
-9.5525096e-06
-1.3711547e-09
-6.4082201e-06
1.2858907e-10
-3.8742728e-06
6.3955993e-10
-2.3169793e-06
6.9924378e-10
-1.482181e-06
6.1898718e-10
-1.0091607e-06
4.9919594e-10
-7.047027e-07
3.8193413e-10
-4.9351096e-07
2.8264082e-10
-3.4562383e-07
2.0346321e-10
-2.4076917e-07
1.4332159e-10
-1.6667786e-07
9.8844865e-11
-1.1464802e-07
6.7022349e-11
-7.8339384e-08
4.4505999e-11
-5.3158045e-08
2.9036423e-11
-3.5797285e-08
1.8450324e-11
-2.3887166e-08
1.141443e-11
-1.5753571e-08
6.7733823e-12
-1.0227438e-08
3.8184742e-12
-6.4969403e-09
1.9760294e-12
-3.999619e-09
9.0878616e-13
-2.3462359e-09
3.3161521e-13
-1.2677404e-09
7.125726e-14
-5.7845137e-10
-1.5052886e-10
-5.7987537e-10
-3.718763e-05
-1.334391e-09
-3.0904008e-05
-2.372891e-09
-2.5139943e-05
-3.4220253e-09
-2.0458479e-05
-4.2259318e-09
-1.6518532e-05
-4.3580686e-09
-1.2932672e-05
-3.3314979e-09
-9.5535361e-06
-1.4211737e-09
-6.4101305e-06
8.6996417e-11
-3.8757809e-06
6.1481338e-10
-2.3175073e-06
6.8308112e-10
-1.4822493e-06
6.0772117e-10
-1.0090854e-06
4.9097996e-10
-7.0458589e-07
3.7587159e-10
-4.9339596e-07
2.7813951e-10
-3.4552601e-07
2.0017019e-10
-2.4069128e-07
1.4092035e-10
-1.6661851e-07
9.7136228e-11
-1.1460429e-07
6.5819376e-11
-7.8307983e-08
4.3706163e-11
-5.3135959e-08
2.8512187e-11
-3.5782024e-08
1.8121586e-11
-2.3876789e-08
1.1224086e-11
-1.5746629e-08
6.6646176e-12
-1.0222881e-08
3.7682595e-12
-6.4940197e-09
1.9600055e-12
-3.9978082e-09
9.0329838e-13
-2.3451675e-09
3.3036184e-13
-1.2671602e-09
6.9552184e-14
-5.7818542e-10
-1.504593e-10
-6.1961929e-10
-3.7187011e-05
-1.3972385e-09
-3.090323e-05
-2.44316e-09
-2.5138898e-05
-3.4937196e-09
-2.0457428e-05
-4.296064e-09
-1.651773e-05
-4.4231905e-09
-1.2932545e-05
-3.3900205e-09
-9.5545693e-06
-1.4670048e-09
-6.4120536e-06
4.9195474e-11
-3.8772971e-06
5.9252243e-10
-2.3180507e-06
6.6863594e-10
-1.4823253e-06
5.976455e-10
-1.0090145e-06
4.8364668e-10
-7.0447182e-07
3.7046695e-10
-4.9328286e-07
2.7412393e-10
-3.4542959e-07
1.9719289e-10
-2.4061442e-07
1.3871449e-10
-1.6655995e-07
9.5553926e-11
-1.1456116e-07
6.4673605e-11
-7.8277023e-08
4.2912808e-11
-5.3114199e-08
2.7948249e-11
-3.5767002e-08
1.7764685e-11
-2.3866582e-08
1.0976696e-11
-1.5739806e-08
6.5251223e-12
-1.0218405e-08
3.6781961e-12
-6.4911535e-09
1.9147545e-12
-3.9960321e-09
8.810235e-13
-2.3441199e-09
3.2199691e-13
-1.2665915e-09
6.8190369e-14
-5.7792473e-10
-1.5039111e-10
-6.5479059e-10
-3.7186356e-05
-1.4529949e-09
-3.0902432e-05
-2.505489e-09
-2.5137845e-05
-3.5571843e-09
-2.0456377e-05
-4.3581425e-09
-1.6516929e-05
-4.4813766e-09
-1.2932422e-05
-3.4434335e-09
-9.5556072e-06
-1.5094889e-09
-6.4139876e-06
1.4679718e-11
-3.8788212e-06
5.7263329e-10
-2.3186087e-06
6.5590388e-10
-1.4824085e-06
5.8893663e-10
-1.0089476e-06
4.7745984e-10
-7.0436029e-07
3.6601289e-10
-4.9317152e-07
2.7093519e-10
-3.4533445e-07
1.9493858e-10
-2.4053852e-07
1.3716381e-10
-1.6650211e-07
9.4463478e-11
-1.1451856e-07
6.3966354e-11
-7.8246462e-08
4.2418728e-11
-5.3092729e-08
2.7661914e-11
-3.5752188e-08
1.754463e-11
-2.3856522e-08
1.0867449e-11
-1.5733085e-08
6.4350293e-12
-1.0213998e-08
3.6394638e-12
-6.488332e-09
1.8924916e-12
-3.9942842e-09
8.7136859e-13
-2.3430892e-09
3.186679e-13
-1.266032e-09
6.7062894e-14
-5.7766831e-10
-1.5032405e-10
-6.8642956e-10
-3.718567e-05
-1.5033043e-09
-3.0901615e-05
-2.5615337e-09
-2.5136787e-05
-3.6141546e-09
-2.0455324e-05
-4.4137473e-09
-1.6516129e-05
-4.533907e-09
-1.2932302e-05
-3.4922502e-09
-9.5566489e-06
-1.5489744e-09
-6.4159309e-06
-1.7645305e-11
-3.8803525e-06
5.5447461e-10
-2.3191809e-06
6.4434815e-10
-1.4824984e-06
5.8109032e-10
-1.0088845e-06
4.7185426e-10
-7.04251e-07
3.619413e-10
-4.9306169e-07
2.6793841e-10
-3.4524039e-07
1.9273288e-10
-2.4046341e-07
1.3553574e-10
-1.6644485e-07
9.3302152e-11
-1.144764e-07
6.3119475e-11
-7.8216218e-08
4.1832301e-11
-5.307149e-08
2.7233608e-11
-3.573754e-08
1.7278115e-11
-2.3846579e-08
1.0672785e-11
-1.5726445e-08
6.3277911e-12
-1.0209646e-08
3.5650038e-12
-6.4855467e-09
1.8458724e-12
-3.9925592e-09
8.4919623e-13
-2.3420722e-09
3.1006581e-13
-1.26548e-09
6.618242e-14
-5.7741531e-10
-1.5025787e-10
-7.1544226e-10
-3.7184954e-05
-1.5493564e-09
-3.0900781e-05
-2.6126689e-09
-2.5135724e-05
-3.6659944e-09
-2.0454271e-05
-4.4642456e-09
-1.6515331e-05
-4.5820458e-09
-1.2932184e-05
-3.5373896e-09
-9.5576935e-06
-1.5860115e-09
-6.4178824e-06
-4.7864539e-11
-3.8818906e-06
5.3796246e-10
-2.3197668e-06
6.339833e-10
-1.4825943e-06
5.7412084e-10
-1.0088247e-06
4.6691641e-10
-7.0414375e-07
3.5838796e-10
-4.9295325e-07
2.653593e-10
-3.4514731e-07
1.9089438e-10
-2.4038902e-07
1.34226e-10
-1.6638812e-07
9.2396994e-11
-1.1443463e-07
6.2497585e-11
-7.8186264e-08
4.1438453e-11
-5.3050463e-08
2.6986935e-11
-3.5723045e-08
1.7133663e-11
-2.3836745e-08
1.0599467e-11
-1.571988e-08
6.2919927e-12
-1.0205345e-08
3.5564388e-12
-6.4827952e-09
1.8534727e-12
-3.9908557e-09
8.5478266e-13
-2.341068e-09
3.128968e-13
-1.2649351e-09
6.5321635e-14
-5.7716559e-10
-1.5019254e-10
-7.4241528e-10
-3.7184212e-05
-1.59216e-09
-3.0899932e-05
-2.6598706e-09
-2.5134656e-05
-3.713741e-09
-2.0453217e-05
-4.5107381e-09
-1.6514534e-05
-4.6266207e-09
-1.2932068e-05
-3.579654e-09
-9.5587405e-06
-1.6215581e-09
-6.4198405e-06
-7.6009204e-11
-3.8834362e-06
5.2289633e-10
-2.3203658e-06
6.2463518e-10
-1.482696e-06
5.6785571e-10
-1.008768e-06
4.6248394e-10
-7.0403833e-07
3.5519172e-10
-4.9284603e-07
2.6301925e-10
-3.4505508e-07
1.8917561e-10
-2.4031524e-07
1.3295412e-10
-1.6633184e-07
9.1490398e-11
-1.1439319e-07
6.1835253e-11
-7.8156557e-08
4.0980627e-11
-5.3029616e-08
2.6652929e-11
-3.5708678e-08
1.692301e-11
-2.3827002e-08
1.0445452e-11
-1.5713379e-08
6.2035583e-12
-1.0201088e-08
3.4946222e-12
-6.4800723e-09
1.8171749e-12
-3.9891703e-09
8.3614808e-13
-2.3400748e-09
3.0563534e-13
-1.2643961e-09
6.4621358e-14
-5.7691858e-10
-1.5012792e-10
-7.6782657e-10
-3.7183444e-05
-1.632389e-09
-3.0899067e-05
-2.7040017e-09
-2.5133584e-05
-3.7582594e-09
-2.0452163e-05
-4.5540968e-09
-1.6513738e-05
-4.6681838e-09
-1.2931954e-05
-3.6198196e-09
-9.5597888e-06
-1.6558059e-09
-6.4218046e-06
-1.024349e-10
-3.8849895e-06
5.0895028e-10
-2.3209772e-06
6.1616351e-10
-1.4828032e-06
5.6234368e-10
-1.0087142e-06
4.587148e-10
-7.0393466e-07
3.5256527e-10
-4.9273996e-07
2.6119674e-10
-3.4496367e-07
1.8792769e-10
-2.4024205e-07
1.3212665e-10
-1.66276e-07
9.09251e-11
-1.1435208e-07
6.1490845e-11
-7.8127081e-08
4.0747944e-11
-5.3008937e-08
2.6538166e-11
-3.5694432e-08
1.6831805e-11
-2.3817343e-08
1.0417022e-11
-1.5706936e-08
6.1756302e-12
-1.0196869e-08
3.4933252e-12
-6.4773751e-09
1.8222348e-12
-3.9875011e-09
8.4067431e-13
-2.3390912e-09
3.0788822e-13
-1.2638624e-09
6.3960355e-14
-5.7667405e-10
-1.5006396e-10
-7.920277e-10
-3.7182652e-05
-1.6706004e-09
-3.0898189e-05
-2.7457316e-09
-2.5132509e-05
-3.8002105e-09
-2.0451108e-05
-4.5948916e-09
-1.6512944e-05
-4.7075268e-09
-1.2931841e-05
-3.6588505e-09
-9.5608375e-06
-1.6888924e-09
-6.4237746e-06
-1.269961e-10
-3.8865514e-06
4.9596008e-10
-2.3216002e-06
6.0836956e-10
-1.4829156e-06
5.5728671e-10
-1.0086632e-06
4.5522889e-10
-7.0383257e-07
3.5009887e-10
-4.926349e-07
2.5940489e-10
-3.4487294e-07
1.8661514e-10
-2.4016933e-07
1.3114894e-10
-1.6622049e-07
9.0220325e-11
-1.143112e-07
6.0963434e-11
-7.8097783e-08
4.0375617e-11
-5.2988386e-08
2.6254249e-11
-3.5680278e-08
1.6650997e-11
-2.380775e-08
1.0276562e-11
-1.5700539e-08
6.0933519e-12
-1.0192683e-08
3.4319696e-12
-6.4746991e-09
1.7788443e-12
-3.9858455e-09
8.1865713e-13
-2.3381159e-09
2.9911617e-13
-1.2633333e-09
6.3439313e-14
-5.7643157e-10
-1.5000052e-10
-8.153433e-10
-3.7181837e-05
-1.7072378e-09
-3.0897297e-05
-2.7855297e-09
-2.5131431e-05
-3.8400538e-09
-2.0450054e-05
-4.6335347e-09
-1.651215e-05
-4.7450039e-09
-1.293173e-05
-3.6967472e-09
-9.5618857e-06
-1.7211478e-09
-6.4257502e-06
-1.5013318e-10
-3.8881224e-06
4.8362721e-10
-2.3222341e-06
6.010878e-10
-1.483033e-06
5.5260926e-10
-1.0086148e-06
4.5207283e-10
-7.03732e-07
3.4790454e-10
-4.9253079e-07
2.5784816e-10
-3.4478284e-07
1.8552808e-10
-2.4009707e-07
1.3038635e-10
-1.6616531e-07
8.9701094e-11
-1.1427056e-07
6.0611449e-11
-7.8068657e-08
4.015908e-11
-5.296796e-08
2.6123852e-11
-3.5666213e-08
1.657833e-11
-2.3798221e-08
1.0246491e-11
-1.5694187e-08
6.0835659e-12
-1.0188527e-08
3.4375294e-12
-6.4720434e-09
1.793953e-12
-3.9842028e-09
8.2794636e-13
-2.3371484e-09
3.0327676e-13
-1.2628085e-09
6.2904109e-14
-5.7619111e-10
-1.4993762e-10
-8.3793285e-10
-3.7180999e-05
-1.7426401e-09
-3.0896392e-05
-2.8237588e-09
-2.513035e-05
-3.878267e-09
-2.0448999e-05
-4.6705248e-09
-1.6511358e-05
-4.7809379e-09
-1.2931619e-05
-3.7333887e-09
-9.5629333e-06
-1.7529052e-09
-6.4277307e-06
-1.7248674e-10
-3.8897028e-06
4.7175805e-10
-2.3228783e-06
5.9411043e-10
-1.4831554e-06
5.4816398e-10
-1.0085689e-06
4.4908215e-10
-7.0363289e-07
3.4581683e-10
-4.9242758e-07
2.5634737e-10
-3.4469334e-07
1.8443165e-10
-2.400252e-07
1.2957372e-10
-1.6611041e-07
8.911875e-11
-1.1423013e-07
6.0179239e-11
-7.8039679e-08
3.9856236e-11
-5.2947641e-08
2.5895902e-11
-3.5652225e-08
1.6432709e-11
-2.3788746e-08
1.013467e-11
-1.5687872e-08
6.0169849e-12
-1.0184396e-08
3.3881906e-12
-6.4694049e-09
1.762291e-12
-3.9825712e-09
8.1098212e-13
-2.3361875e-09
2.9652946e-13
-1.2622873e-09
6.2479123e-14
-5.7595231e-10
-1.4987514e-10
-8.5992e-10
-3.7180139e-05
-1.7770469e-09
-3.0895475e-05
-2.8608487e-09
-2.5129266e-05
-3.9152967e-09
-2.0447945e-05
-4.7063362e-09
-1.6510567e-05
-4.8158243e-09
-1.293151e-05
-3.7692163e-09
-9.5639799e-06
-1.7843832e-09
-6.4297156e-06
-1.9400119e-10
-3.8912931e-06
4.6048549e-10
-2.3235329e-06
5.8758776e-10
-1.4832824e-06
5.4417952e-10
-1.0085255e-06
4.4650566e-10
-7.0353519e-07
3.4410219e-10
-4.9232525e-07
2.5521508e-10
-3.4460442e-07
1.8368799e-10
-2.3995375e-07
1.2911277e-10
-1.6605581e-07
8.8813449e-11
-1.1418991e-07
6.0017288e-11
-7.8010855e-08
3.9748068e-11
-5.2927434e-08
2.586494e-11
-3.5638316e-08
1.6398903e-11
-2.3779326e-08
1.0142956e-11
-1.5681596e-08
6.0146118e-12
-1.0180292e-08
3.4023071e-12
-6.4667832e-09
1.7775846e-12
-3.9809501e-09
8.2083425e-13
-2.335233e-09
3.0085409e-13
-1.2617696e-09
6.2046813e-14
-5.7571512e-10
-1.4981309e-10
-8.8141999e-10
-3.7179258e-05
-1.8107108e-09
-3.0894546e-05
-2.8971143e-09
-2.5128179e-05
-3.9515377e-09
-2.044689e-05
-4.7413502e-09
-1.6509777e-05
-4.8499424e-09
-1.2931401e-05
-3.8043202e-09
-9.5650255e-06
-1.8150904e-09
-6.4317049e-06
-2.1491139e-10
-3.8928933e-06
4.4953148e-10
-2.3241974e-06
5.8132846e-10
-1.4834142e-06
5.403384e-10
-1.0084846e-06
4.439696e-10
-7.0343879e-07
3.4235793e-10
-4.922237e-07
2.539733e-10
-3.4451601e-07
1.8278077e-10
-2.3988262e-07
1.2842792e-10
-1.6600143e-07
8.8310079e-11
-1.1414985e-07
5.9628268e-11
-7.7982144e-08
3.9466397e-11
-5.2907309e-08
2.5641812e-11
-3.5624468e-08
1.6252857e-11
-2.3769951e-08
1.0024306e-11
-1.5675352e-08
5.9411149e-12
-1.0176209e-08
3.3451186e-12
-6.4641761e-09
1.7334785e-12
-3.9793384e-09
7.978806e-13
-2.334284e-09
2.9158883e-13
-1.261255e-09
6.1691673e-14
-5.7547934e-10
-1.497514e-10
-9.0254074e-10
-3.7178355e-05
-1.8437792e-09
-3.0893604e-05
-2.932789e-09
-2.512709e-05
-3.9872904e-09
-2.0445836e-05
-4.7759608e-09
-1.6508988e-05
-4.8836009e-09
-1.2931294e-05
-3.8387011e-09
-9.5660704e-06
-1.8451172e-09
-6.4336985e-06
-2.3501857e-10
-3.8945034e-06
4.3901286e-10
-2.3248715e-06
5.755005e-10
-1.4835507e-06
5.3685057e-10
-1.008446e-06
4.4175552e-10
-7.0334367e-07
3.409047e-10
-4.921229e-07
2.5299273e-10
-3.4442807e-07
1.8212742e-10
-2.3981181e-07
1.2798251e-10
-1.6594725e-07
8.8015096e-11
-1.1410992e-07
5.9430672e-11
-7.7953533e-08
3.9350049e-11
-5.2887256e-08
2.5575721e-11
-3.5610672e-08
1.6220927e-11
-2.3760613e-08
1.0018823e-11
-1.5669134e-08
5.9470927e-12
-1.0172145e-08
3.3595592e-12
-6.4615819e-09
1.7553685e-12
-3.9777351e-09
8.1021234e-13
-2.3333403e-09
2.9690122e-13
-1.2607433e-09
6.1336279e-14
-5.752449e-10
-1.4969006e-10
-9.2332824e-10
-3.7177432e-05
-1.87639e-09
-3.0892651e-05
-2.9679521e-09
-2.5125999e-05
-4.0226213e-09
-2.0444781e-05
-4.8102316e-09
-1.6508201e-05
-4.9170019e-09
-1.2931187e-05
-3.8725087e-09
-9.5671149e-06
-1.8748963e-09
-6.4356961e-06
-2.5447285e-10
-3.8961238e-06
4.2898804e-10
-2.325555e-06
5.7000081e-10
-1.4836917e-06
5.3366333e-10
-1.0084097e-06
4.3977667e-10
-7.0324977e-07
3.3962998e-10
-4.920228e-07
2.5213186e-10
-3.4434055e-07
1.8152899e-10
-2.3974125e-07
1.2754593e-10
-1.6589324e-07
8.7705629e-11
-1.1407011e-07
5.9192031e-11
-7.7924992e-08
3.9178742e-11
-5.286725e-08
2.54355e-11
-3.5596908e-08
1.6127792e-11
-2.3751298e-08
9.9389112e-12
-1.5662933e-08
5.8955772e-12
-1.0168093e-08
3.3175864e-12
-6.4589956e-09
1.7230187e-12
-3.976137e-09
7.9270443e-13
-2.3323997e-09
2.8979233e-13
-1.2602333e-09
6.1138307e-14
-5.7501126e-10
-1.4962893e-10
-9.4382758e-10
-3.7176488e-05
-1.9085969e-09
-3.0891687e-05
-3.0027107e-09
-2.5124905e-05
-4.0575277e-09
-2.0443726e-05
-4.8440056e-09
-1.6507414e-05
-4.9498961e-09
-1.2931081e-05
-3.9060416e-09
-9.5681587e-06
-1.9043186e-09
-6.4376979e-06
-2.7378145e-10
-3.8977543e-06
4.1918214e-10
-2.326248e-06
5.6465628e-10
-1.4838371e-06
5.3063492e-10
-1.0083757e-06
4.3798841e-10
-7.031571e-07
3.3856792e-10
-4.9192344e-07
2.5152048e-10
-3.4425348e-07
1.8119823e-10
-2.3967099e-07
1.2740022e-10
-1.6583942e-07
8.7646314e-11
-1.1403042e-07
5.9208298e-11
-7.7896536e-08
3.9206386e-11
-5.28473e-08
2.5496428e-11
-3.5583181e-08
1.6166692e-11
-2.3742008e-08
9.9941346e-12
-1.5656748e-08
5.9307724e-12
-1.0164052e-08
3.3550447e-12
-6.4564162e-09
1.7563021e-12
-3.9745432e-09
8.1195451e-13
-2.3314618e-09
2.9786252e-13
-1.2597248e-09
6.094881e-14
-5.7477831e-10
-1.4956798e-10
-9.6409222e-10
-3.7175524e-05
-1.9405162e-09
-3.089071e-05
-3.037173e-09
-2.5123808e-05
-4.092069e-09
-2.0442671e-05
-4.8773609e-09
-1.6506629e-05
-4.9823351e-09
-1.2930976e-05
-3.9394918e-09
-9.5692016e-06
-1.9339225e-09
-6.4397035e-06
-2.9287062e-10
-3.8993954e-06
4.093836e-10
-2.3269503e-06
5.5927773e-10
-1.483987e-06
5.2748175e-10
-1.008344e-06
4.3602243e-10
-7.0306562e-07
3.3729598e-10
-4.9182476e-07
2.5066264e-10
-3.4416683e-07
1.8059949e-10
-2.3960098e-07
1.2695943e-10
-1.6578576e-07
8.7327394e-11
-1.1399083e-07
5.895792e-11
-7.7868147e-08
3.9023794e-11
-5.2827396e-08
2.5344237e-11
-3.5569487e-08
1.6064398e-11
-2.3732741e-08
9.9042869e-12
-1.5650578e-08
5.8707208e-12
-1.016002e-08
3.3050549e-12
-6.4538436e-09
1.7138366e-12
-3.9729538e-09
7.8903408e-13
-2.3305264e-09
2.8848439e-13
-1.2592177e-09
6.0801391e-14
-5.7454596e-10
-1.4950718e-10
-9.8427043e-10
-3.717454e-05
-1.9722571e-09
-3.0889722e-05
-3.0715144e-09
-2.5122709e-05
-4.1264393e-09
-2.0441617e-05
-4.910495e-09
-1.6505845e-05
-5.014649e-09
-1.2930872e-05
-3.9728003e-09
-9.5702434e-06
-1.963591e-09
-6.4417127e-06
-3.1174031e-10
-3.9010472e-06
3.9965228e-10
-2.3276617e-06
5.5398653e-10
-1.4841413e-06
5.2444503e-10
-1.0083145e-06
4.3417688e-10
-7.0297534e-07
3.3614242e-10
-4.9172678e-07
2.4992965e-10
-3.440806e-07
1.8014084e-10
-2.3953123e-07
1.2666785e-10
-1.6573227e-07
8.7149688e-11
-1.1395135e-07
5.8849383e-11
-7.783983e-08
3.8969334e-11
-5.2807541e-08
2.5322061e-11
-3.5555826e-08
1.6061637e-11
-2.3723497e-08
9.9179563e-12
-1.5644425e-08
5.8894156e-12
-1.0156001e-08
3.3271371e-12
-6.4512787e-09
1.7405041e-12
-3.9713692e-09
8.0391522e-13
-2.3295939e-09
2.9476603e-13
-1.2587122e-09
6.0598864e-14
-5.7431437e-10
-1.4944658e-10
-1.004436e-09
-3.7173535e-05
-2.0038908e-09
-3.0888723e-05
-3.105837e-09
-2.5121607e-05
-4.1608287e-09
-2.0440562e-05
-4.9436431e-09
-1.6505062e-05
-5.0470574e-09
-1.2930769e-05
-4.0062229e-09
-9.5712843e-06
-1.9928245e-09
-6.4437262e-06
-3.3048405e-10
-3.9027095e-06
3.9010548e-10
-2.3283823e-06
5.4892042e-10
-1.4843001e-06
5.2157824e-10
-1.0082872e-06
4.3246473e-10
-7.0288621e-07
3.3507713e-10
-4.9162943e-07
2.4924362e-10
-3.4399475e-07
1.7968252e-10
-2.3946171e-07
1.2634373e-10
-1.6567891e-07
8.6925006e-11
-1.1391195e-07
5.8676775e-11
-7.7811564e-08
3.8845379e-11
-5.2787717e-08
2.5217269e-11
-3.5542185e-08
1.5990781e-11
-2.3714266e-08
9.8536855e-12
-1.5638281e-08
5.8455595e-12
-1.0151987e-08
3.2896973e-12
-6.4487175e-09
1.7092668e-12
-3.969787e-09
7.8664775e-13
-2.3286629e-09
2.8768984e-13
-1.2582075e-09
6.0519636e-14
-5.7408314e-10
-1.4938606e-10
-1.0246383e-09
-3.7172511e-05
-2.0354704e-09
-3.0887712e-05
-3.1402072e-09
-2.5120502e-05
-4.1952848e-09
-2.0439506e-05
-4.9769085e-09
-1.6504281e-05
-5.0795581e-09
-1.2930666e-05
-4.039715e-09
-9.5723241e-06
-2.022074e-09
-6.4457438e-06
-3.4880119e-10
-3.9043828e-06
3.8087008e-10
-2.329112e-06
5.4413457e-10
-1.4844634e-06
5.1893018e-10
-1.008262e-06
4.3098956e-10
-7.0279825e-07
3.3424748e-10
-4.9153274e-07
2.4881686e-10
-3.4390931e-07
1.7949312e-10
-2.3939245e-07
1.2631003e-10
-1.6562572e-07
8.6954659e-11
-1.1387266e-07
5.8763784e-11
-7.7783366e-08
3.8928205e-11
-5.2767937e-08
2.5320608e-11
-3.5528571e-08
1.6063828e-11
-2.3705051e-08
9.9342337e-12
-1.5632147e-08
5.90135e-12
-1.0147979e-08
3.3414975e-12
-6.44616e-09
1.7536387e-12
-3.968207e-09
8.1218178e-13
-2.3277332e-09
2.9831392e-13
-1.2577034e-09
6.043506e-14
-5.7385219e-10
-1.4932562e-10
-1.0448635e-09
-3.7171466e-05
-2.0671095e-09
-3.088669e-05
-3.1746897e-09
-2.5119395e-05
-4.2298309e-09
-2.0438451e-05
-5.0102525e-09
-1.65035e-05
-5.1118669e-09
-1.2930564e-05
-4.0729527e-09
-9.573363e-06
-2.0513382e-09
-6.4477655e-06
-3.672672e-10
-3.9060669e-06
3.713273e-10
-2.3298506e-06
5.3904446e-10
-1.4846311e-06
5.1604456e-10
-1.0082391e-06
4.292405e-10
-7.0271144e-07
3.3313905e-10
-4.9143669e-07
2.4807786e-10
-3.4382424e-07
1.7898112e-10
-2.3932341e-07
1.2593495e-10
-1.6557267e-07
8.6682603e-11
-1.1383346e-07
5.8548304e-11
-7.7755222e-08
3.8769701e-11
-5.2748192e-08
2.5185318e-11
-3.551498e-08
1.5968656e-11
-2.3695852e-08
9.8477792e-12
-1.5626023e-08
5.8385902e-12
-1.0143977e-08
3.2881782e-12
-6.4436066e-09
1.7056881e-12
-3.9666295e-09