/*--------------------------------*- C++ -*----------------------------------*\
| =========                 |                                                 |
| \\      /  F ield         | OpenFOAM: The Open Source CFD Toolbox           |
|  \\    /   O peration     | Version:  v2012                                 |
|   \\  /    A nd           | Website:  www.openfoam.com                      |
|    \\/     M anipulation  |                                                 |
\*---------------------------------------------------------------------------*/
FoamFile
{
    version     2.0;
    format      ascii;
    class       volScalarField;
    location    "250";
    object      rho;
}
// * * * * * * * * * * * * * * * * * * * * * * * * * * * * * * * * * * * * * //

dimensions      [1 -3 0 0 0 0 0];


internalField   nonuniform List<scalar> 
24000
(
22.475197
22.212875
21.553646
20.99058
20.256406
18.88646
16.508335
12.966257
9.0525567
6.1972486
4.534533
3.5863979
2.9896255
2.592928
2.3297236
2.1463008
2.0134878
1.9143647
1.8386118
1.7796419
1.7330536
1.6957409
1.6654549
1.6405537
1.6198286
1.6023772
1.5875169
1.5747251
1.563597
1.5538157
22.477903
22.215438
21.555508
20.992128
20.257853
18.887739
16.50919
12.96927
9.067393
6.2142279
4.5486019
3.5975987
2.9985466
2.5998195
2.3351737
2.1507338
2.0171836
1.917506
1.8413252
1.7820236
1.7351834
1.6976837
1.6672609
1.6422596
1.6214602
1.6039526
1.5890482
1.576221
1.5650638
1.5552574
22.480727
22.21792
21.557208
20.993587
20.259517
18.889812
16.513441
12.979046
9.0787789
6.2226023
4.5545951
3.6021762
3.002212
2.6027679
2.3376336
2.1528547
2.019068
1.9192004
1.8428559
1.7834069
1.7364347
1.6988239
1.6683127
1.6432444
1.6223955
1.6048515
1.58992
1.5770717
1.5658971
1.5560763
22.483556
22.220471
21.559123
20.995307
20.261398
18.892293
16.518296
12.98702
9.0860442
6.2268405
4.5572037
3.6038353
3.003269
2.6034184
2.3380273
2.1530079
2.0189945
1.9189546
1.8424976
1.7829895
1.735997
1.6983884
1.6678894
1.6428357
1.6220005
1.6044681
1.5895461
1.5767059
1.5655384
1.5557238
22.486388
22.223054
21.561135
20.997132
20.263389
18.895039
16.523211
12.994194
9.092191
6.2301195
4.5590419
3.6049528
3.0040165
2.6039671
2.3384458
2.1533382
2.0192666
1.9191862
1.8426985
1.7831646
1.7361501
1.6985232
1.6680095
1.6429445
1.6221009
1.6045624
1.589636
1.5767928
1.565623
1.555807
22.489222
22.225672
21.563229
20.999035
20.26544
18.897861
16.52806
13.00103
9.098221
6.2330975
4.5604975
3.6057371
3.0044656
2.6042492
2.3386333
2.1534609
2.019343
1.9192294
1.8427186
1.7831696
1.7361457
1.6985132
1.6679962
1.6429293
1.6220846
1.6045455
1.5896189
1.5767756
1.565606
1.5557903
22.492059
22.228317
21.565376
21.00099
20.26752
18.900729
16.532907
13.007793
9.104277
6.2359805
4.5618488
3.6064353
3.0048445
2.6044778
2.3387864
2.1535667
2.0194175
1.9192829
1.8427576
1.7831983
1.7361671
1.6985292
1.6680082
1.6429384
1.6220915
1.604551
1.5896234
1.5767795
1.5656097
1.555794
22.494897
22.230982
21.567563
21.002978
20.269621
18.90363
16.537787
13.014576
9.1103651
6.2388782
4.5631911
3.6071162
3.0052032
2.604687
2.3389226
2.1536583
2.0194799
1.9193258
1.8427872
1.7832187
1.7361811
1.6985387
1.6680145
1.6429424
1.6220939
1.6045523
1.5896239
1.5767797
1.5656097
1.555794
22.497737
22.233663
21.56978
21.004989
20.271742
18.906562
16.542715
13.021417
9.1164817
6.2418362
4.5645659
3.6078132
3.0055701
2.6049005
2.3390616
2.1537523
2.0195449
1.9193715
1.8428199
1.7832425
1.7361986
1.6985517
1.6680243
1.6429498
1.6220996
1.6045568
1.5896277
1.576783
1.5656128
1.5557971
22.500578
22.236356
21.572017
21.007019
20.273879
18.909523
16.54769
13.028321
9.1226237
6.2448687
4.5659863
3.6085368
3.0059541
2.6051255
2.3392088
2.1538524
2.0196146
1.9194213
1.8428563
1.7832696
1.7362193
1.6985678
1.668037
1.6429601
1.6221082
1.6045641
1.5896342
1.576789
1.5656185
1.5558028
22.503419
22.23906
21.574272
21.009064
20.276032
18.912511
16.55271
13.035286
9.1287901
6.2479757
4.5674544
3.6092896
3.0063577
2.6053644
2.339366
2.1539602
2.0196906
1.9194763
1.842897
1.7833007
1.7362436
1.6985872
1.6680528
1.6429733
1.6221196
1.6045742
1.5896434
1.5767975
1.5656268
1.555811
22.506261
22.241772
21.576541
21.011124
20.278198
18.915522
16.557765
13.042304
9.1349818
6.2511543
4.5689667
3.6100702
3.0067807
2.6056173
2.3395336
2.1540758
2.0197727
1.9195364
1.8429422
1.7833356
1.7362713
1.6986098
1.6680716
1.6429894
1.6221336
1.6045868
1.589655
1.5768086
1.5656375
1.5558215
22.509104
22.244489
21.578822
21.013196
20.280377
18.918552
16.56285
13.049368
9.1411936
6.254399
4.570519
3.6108764
3.0072217
2.6058834
2.339711
2.154199
2.019861
1.9196014
1.8429916
1.7833741
1.7363023
1.6986353
1.6680931
1.643008
1.6221501
1.6046018
1.5896689
1.5768218
1.5656503
1.5558341
22.511947
22.247213
21.581113
21.015279
20.282567
18.921598
16.567958
13.056471
9.1474253
6.2577051
4.5721072
3.6117058
3.0076792
2.6061618
2.3398977
2.1543295
2.019955
1.9196713
1.8430451
1.7834162
1.7363364
1.6986637
1.6681174
1.6430292
1.622169
1.6046191
1.5896851
1.5768372
1.5656653
1.5558489
22.51479
22.249941
21.583414
21.017373
20.284769
18.924659
16.573083
13.063607
9.1536772
6.2610679
4.5737277
3.6125565
3.0081519
2.6064515
2.340093
2.1544666
2.0200544
1.9197456
1.8431023
1.7834617
1.7363736
1.6986949
1.6681442
1.6430528
1.6221903
1.6046386
1.5897034
1.5768547
1.5656823
1.5558656
22.517633
22.252674
21.585723
21.019477
20.28698
18.927732
16.578223
13.070769
9.1599443
6.264483
4.5753775
3.6134264
3.0086384
2.6067517
2.3402962
2.1546101
2.0201589
1.9198242
1.8431633
1.7835104
1.7364137
1.6987287
1.6681735
1.6430787
1.6222137
1.6046603
1.5897238
1.5768743
1.5657013
1.5558843
22.520476
22.25541
21.58804
21.02159
20.289201
18.930815
16.583373
13.077954
9.1662279
6.2679476
4.5770543
3.6143136
3.0091375
2.6070614
2.3405069
2.1547593
2.020268
1.9199066
1.8432276
1.783562
1.7364563
1.698765
1.668205
1.6431068
1.6222392
1.6046839
1.5897461
1.5768957
1.5657221
1.5559048
22.523319
22.25815
21.590365
21.023711
20.29143
18.933906
16.58853
13.085161
9.1725273
6.2714603
4.5787555
3.615217
3.0096483
2.6073799
2.3407242
2.1549138
2.0203816
1.9199928
1.843295
1.7836163
1.7365015
1.6988035
1.6682386
1.6431368
1.6222666
1.6047094
1.5897702
1.5769188
1.5657446
1.555927
22.526162
22.260893
21.592697
21.025841
20.293669
18.937005
16.593693
13.092384
9.1788391
6.2750183
4.5804794
3.6161353
3.0101697
2.6077063
2.3409477
2.1550732
2.020499
1.9200821
1.8433651
1.7836731
1.7365489
1.698844
1.6682741
1.6431686
1.6222957
1.6047364
1.5897958
1.5769434
1.5657686
1.5559506
22.529005
22.263639
21.595036
21.027978
20.295915
18.940111
16.59886
13.099622
9.1851701
6.278616
4.5822244
3.6170673
3.0107009
2.6080403
2.341177
2.1552371
2.0206202
1.9201747
1.843438
1.7837322
1.7365983
1.6988865
1.6683114
1.6432021
1.6223264
1.6047651
1.589823
1.5769696
1.565794
1.5559756
22.531848
22.266388
21.597382
21.030124
20.298169
18.943223
16.60403
13.106873
9.191522
6.2822502
4.583989
3.6180123
3.0112413
2.6083812
2.3414118
2.1554054
2.0207449
1.9202701
1.8435134
1.7837936
1.7366497
1.6989307
1.6683504
1.6432372
1.6223585
1.6047951
1.5898515
1.576997
1.5658207
1.5560019
22.534691
22.269139
21.599734
21.032277
20.300431
18.946343
16.609202
13.114135
9.1978946
6.2859196
4.5857726
3.6189696
3.0117906
2.6087289
2.3416518
2.1555778
2.0208729
1.9203684
1.8435912
1.7838571
1.7367031
1.6989767
1.668391
1.6432738
1.6223922
1.6048266
1.5898814
1.5770258
1.5658488
1.5560296
22.537533
22.271894
21.602093
21.034437
20.3027
18.949467
16.614375
13.12141
9.2042928
6.2896211
4.5875744
3.6199385
3.0123482
2.609083
2.3418967
2.1557542
2.0210042
1.9204694
1.8436713
1.7839226
1.7367583
1.6990244
1.6684332
1.6433119
1.6224273
1.6048594
1.5899127
1.5770559
1.5658781
1.5560584
22.540375
22.274651
21.604458
21.036605
20.304977
18.952596
16.619547
13.128695
9.2107142
6.2933528
4.5893936
3.6209186
3.012914
2.6094433
2.3421464
2.1559345
2.0211387
1.9205731
1.8437537
1.7839902
1.7368153
1.6990738
1.6684769
1.6433515
1.6224638
1.6048936
1.5899452
1.5770873
1.5659087
1.5560885
22.543216
22.27741
21.606831
21.03878
20.307261
18.95573
16.624718
13.135989
9.2171607
6.2971145
4.5912296
3.6219096
3.0134876
2.6098095
2.3424008
2.1561183
2.0212761
1.9206792
1.8438383
1.7840597
1.7368741
1.6991247
1.6685221
1.6433924
1.6225015
1.604929
1.5899789
1.5771198
1.5659403
1.5561196
22.546057
22.280172
21.609209
21.040963
20.309552
18.958869
16.629887
13.143292
9.2236341
6.3009058
4.5930822
3.6229115
3.0140689
2.6101815
2.3426598
2.1563059
2.0214166
1.9207879
1.8439251
1.7841311
1.7369345
1.6991772
1.6685688
1.6434348
1.6225407
1.6049658
1.5900139
1.5771536
1.5659733
1.556152
22.548898
22.282937
21.611593
21.043153
20.311851
18.962013
16.635055
13.150602
9.2301311
6.3047252
4.5949513
3.6239238
3.0146576
2.6105592
2.3429232
2.1564971
2.02156
1.9208991
1.844014
1.7842044
1.7369967
1.6992313
1.6686169
1.6434785
1.6225811
1.6050037
1.5900501
1.5771884
1.5660073
1.5561855
22.551737
22.285703
21.613984
21.045349
20.314157
18.965161
16.640223
13.157924
9.2366555
6.3085723
4.5968368
3.6249465
3.0152536
2.6109424
2.3431909
2.1566916
2.0217062
1.9210126
1.8441049
1.7842795
1.7370604
1.6992868
1.6686664
1.6435235
1.6226227
1.6050429
1.5900874
1.5772245
1.5660424
1.55622
22.554577
22.288472
21.61638
21.047553
20.31647
18.968315
16.645393
13.165252
9.2432064
6.3124476
4.5987379
3.6259794
3.0158566
2.6113309
2.3434628
2.1568895
2.0218552
1.9211284
1.8441978
1.7843562
1.7371257
1.6993437
1.6687172
1.6435697
1.6226655
1.6050831
1.5901258
1.5772615
1.5660785
1.5562556
22.557416
22.291243
21.618783
21.049763
20.318791
18.971473
16.650561
13.172588
9.2497817
6.3163499
4.6006544
3.627022
3.0164666
2.6117248
2.3437388
2.1570907
2.0220068
1.9212464
1.8442926
1.7844348
1.7371925
1.6994021
1.6687693
1.6436172
1.6227095
1.6051246
1.5901654
1.5772997
1.5661158
1.5562922
22.560255
22.294016
21.621191
21.05198
20.321119
18.974637
16.655729
13.179933
9.2563858
6.3202791
4.6025862
3.6280743
3.0170834
2.6121238
2.3440189
2.1572952
2.0221611
1.9213667
1.8443893
1.7845149
1.7372608
1.6994618
1.6688227
1.6436658
1.6227546
1.605167
1.5902059
1.5773389
1.566154
1.5563298
22.563093
22.296791
21.623604
21.054204
20.323454
18.977805
16.660895
13.187284
9.2630153
6.3242347
4.6045334
3.6291364
3.017707
2.612528
2.344303
2.1575029
2.022318
1.9214892
1.8444879
1.7845967
1.7373306
1.6995229
1.6688774
1.6437156
1.6228009
1.6052106
1.5902475
1.5773791
1.5661932
1.5563684
22.56593
22.299569
21.626024
21.056435
20.325797
18.98098
16.66606
13.194643
9.2696717
6.3282175
4.6064962
3.630208
3.0183374
2.6129373
2.3445912
2.1577137
2.0224775
1.9216138
1.8445884
1.7846801
1.7374018
1.6995853
1.6689332
1.6437665
1.6228481
1.6052551
1.5902901
1.5774202
1.5662333
1.5564078
22.568767
22.302349
21.628448
21.058672
20.328146
18.984159
16.671224
13.202012
9.2763572
6.3322266
4.6084744
3.631289
3.0189746
2.6133516
2.3448833
2.1579277
2.0226396
1.9217406
1.8446907
1.7847652
1.7374745
1.699649
1.6689903
1.6438187
1.6228966
1.6053008
1.5903337
1.5774624
1.5662744
1.5564482
22.571603
22.305131
21.630879
21.060916
20.330504
18.987345
16.676387
13.209388
9.2830671
6.3362615
4.610468
3.6323799
3.0196185
2.6137711
2.3451793
2.1581449
2.0228043
1.9218695
1.8447948
1.7848519
1.7375486
1.699714
1.6690486
1.6438719
1.622946
1.6053474
1.5903783
1.5775054
1.5663164
1.5564896
22.574439
22.307915
21.633314
21.063167
20.332868
18.990536
16.68155
13.216771
9.2898067
6.340323
4.6124767
3.6334806
3.0202689
2.6141957
2.3454793
2.1583652
2.0229715
1.9220005
1.8449008
1.7849401
1.7376242
1.6997803
1.669108
1.6439262
1.6229965
1.6053951
1.5904238
1.5775495
1.5663594
1.5565318
22.577273
22.310701
21.635755
21.065424
20.33524
18.993732
16.686714
13.224161
9.2965739
6.3444114
4.6145006
3.6345907
3.020926
2.6146252
2.3457832
2.1585886
2.0231413
1.9221337
1.8450085
1.7850299
1.7377011
1.6998479
1.6691687
1.6439816
1.6230481
1.6054437
1.5904703
1.5775944
1.5664032
1.5565749
22.580107
22.313489
21.638202
21.067689
20.33762
18.996934
16.69188
13.231561
9.303367
6.348525
4.6165399
3.6357103
3.0215899
2.6150597
2.346091
2.1588152
2.0233136
1.9222691
1.8451182
1.7851215
1.7377795
1.6999168
1.6692306
1.6440383
1.6231008
1.6054935
1.5905179
1.5776404
1.5664481
1.5566191
22.582939
22.316279
21.640654
21.06996
20.340007
19.000142
16.697046
13.238969
9.3101895
6.3526646
4.6185948
3.6368395
3.0222604
2.6154992
2.3464028
2.159045
2.0234885
1.9224066
1.8452296
1.7852146
1.7378594
1.6999871
1.6692937
1.644096
1.6231545
1.6055442
1.5905664
1.5776873
1.5664939
1.5566641
22.585771
22.31907
21.643111
21.072238
20.342402
19.003356
16.702213
13.246385
9.3170377
6.3568317
4.6206649
3.6379781
3.0229375
2.6159438
2.3467186
2.1592779
2.0236661
1.9225463
1.845343
1.7853094
1.7379407
1.7000587
1.6693581
1.644155
1.6232094
1.6055961
1.5906161
1.5777353
1.5665407
1.5567102
22.588601
22.321863
21.645573
21.074523
20.344804
19.006577
16.707381
13.253809
9.3239158
6.3610238
4.6227508
3.6391265
3.0236213
2.6163935
2.3470384
2.159514
2.0238463
1.9226883
1.8454583
1.7854058
1.7380236
1.7001316
1.6694237
1.6442151
1.6232654
1.605649
1.5906667
1.5777842
1.5665885
1.5567571
22.591431
22.324658
21.64804
21.076815
20.347214
19.009804
16.71255
13.26124
9.3308225
6.3652413
4.6248526
3.6402849
3.0243122
2.6168484
2.3473623
2.1597535
2.0240291
1.9228325
1.8455755
1.785504
1.7381081
1.700206
1.6694907
1.6442765
1.6233226
1.6057031
1.5907184
1.5778343
1.5666373
1.5568051
22.594259
22.327455
21.650513
21.079114
20.349632
19.013037
16.717718
13.268681
9.3377564
6.3694864
4.6269705
3.641453
3.0250098
2.6173085
2.3476902
2.1599961
2.0242146
1.9229789
1.8456947
1.7856037
1.738194
1.7002817
1.6695589
1.6443391
1.6233809
1.6057582
1.5907712
1.5778853
1.5666871
1.5568541
22.597087
22.330253
21.652991
21.08142
20.352057
19.016277
16.722885
13.276132
9.3447202
6.373757
4.629104
3.6426312
3.0257141
2.6177737
2.3480222
2.160242
2.0244028
1.9231275
1.8458157
1.7857053
1.7382814
1.7003588
1.6696284
1.6444029
1.6234404
1.6058144
1.590825
1.5779374
1.566738
1.5569041
22.599913
22.333053
21.655474
21.083733
20.354491
19.019524
16.728057
13.283591
9.3517107
6.3780529
4.6312535
3.6438192
3.0264253
2.618244
2.3483581
2.1604911
2.0245935
1.9232784
1.8459387
1.7858084
1.7383704
1.7004372
1.6696991
1.6444678
1.6235009
1.6058717
1.5908799
1.5779905
1.5667898
1.556955
22.602738
22.335854
21.657962
21.086053
20.356932
19.022779
16.733234
13.291058
9.3587311
6.382376
4.6334193
3.6450169
3.0271434
2.6187195
2.3486981
2.1607434
2.024787
1.9234316
1.8460637
1.7859133
1.7384609
1.7005172
1.6697712
1.6445341
1.6235628
1.6059303
1.5909359
1.5780447
1.5668427
1.5570071
22.605563
22.338656
21.660456
21.08838
20.359382
19.026041
16.738415
13.298534
9.3657811
6.3867245
4.6356016
3.6462245
3.0278684
2.6192002
2.3490421
2.160999
2.0249831
1.923587
1.8461905
1.7860199
1.7385529
1.7005984
1.6698446
1.6446015
1.6236257
1.6059898
1.590993
1.5780999
1.5668966
1.5570601
22.608386
22.34146
21.662955
21.090714
20.361839
19.02931
16.743599
13.30602
9.3728579
6.3910986
4.6378001
3.6474421
3.0286002
2.6196861
2.3493902
2.1612578
2.025182
1.9237446
1.8463193
1.7861282
1.7386465
1.7006812
1.6699192
1.6446702
1.6236899
1.6060505
1.5910511
1.5781562
1.5669515
1.5571141
22.611207
22.344265
21.66546
21.093056
20.364305
19.032587
16.748783
13.313515
9.3799647
6.3954993
4.6400151
3.6486698
3.0293389
2.6201772
2.3497423
2.1615199
2.0253835
1.9239045
1.8464501
1.7862382
1.7387416
1.7007652
1.6699952
1.6447401
1.6237551
1.6061123
1.5911103
1.5782135
1.5670075
1.5571691
22.614028
22.347072
21.667971
21.095406
20.366779
19.035872
16.753968
13.32102
9.3870995
6.3999257
4.6422467
3.6499081
3.0300849
2.6206737
2.3500987
2.1617854
2.0255877
1.9240668
1.8465829
1.78635
1.7388383
1.7008509
1.6700726
1.6448113
1.6238217
1.6061753
1.5911707
1.5782719
1.5670646
1.5572252
22.616847
22.34988
21.670487
21.097762
20.369261
19.039163
16.759154
13.328534
9.394264
6.4043781
4.644496
3.6511566
3.0308379
2.6211754
2.3504592
2.1620542
2.0257947
1.9242313
1.8467176
1.7864634
1.7389365
1.7009379
1.6701512
1.6448837
1.6238894
1.6062394
1.5912322
1.5783314
1.5671227
1.5572823
22.619665
22.352689
21.673008
21.100127
20.371752
19.042463
16.764344
13.336056
9.4014576
6.4088563
4.6467624
3.6524151
3.0315978
2.6216823
2.3508238
2.1623262
2.0260044
1.9243981
1.8468544
1.7865787
1.7390363
1.7010263
1.6702312
1.6449574
1.6239583
1.6063047
1.5912948
1.578392
1.5671819
1.5573405
22.622481
22.355499
21.675535
21.102498
20.374252
19.045772
16.769545
13.343591
9.4086801
6.4133608
4.6490458
3.6536839
3.0323647
2.6221946
2.3511926
2.1626016
2.0262168
1.9245672
1.846993
1.7866957
1.7391376
1.7011162
1.6703125
1.6450322
1.6240283
1.6063711
1.5913584
1.5784536
1.567242
1.5573997
22.625296
22.358311
21.678068
21.104876
20.376759
19.049089
16.774752
13.351136
9.4159315
6.4178909
4.6513461
3.6549629
3.0331389
2.6227122
2.3515655
2.1628803
2.026432
1.9247386
1.8471338
1.7868145
1.7392407
1.7012077
1.6703952
1.6451085
1.6240997
1.6064388
1.5914233
1.5785165
1.5673034
1.55746
22.628109
22.361123
21.680605
21.107261
20.379276
19.052414
16.779961
13.358689
9.4232119
6.4224464
4.6536646
3.6562524
3.0339201
2.6232351
2.3519426
2.1631624
2.0266499
1.9249123
1.8472765
1.786935
1.7393452
1.7013005
1.6704793
1.645186
1.6241722
1.6065075
1.5914893
1.5785803
1.5673658
1.5575213
22.630921
22.363936
21.683148
21.109654
20.381801
19.055748
16.785174
13.366252
9.4305216
6.4270285
4.6560012
3.6575527
3.0347084
2.6237632
2.3523239
2.1634478
2.0268706
1.9250883
1.8474212
1.7870573
1.7394514
1.7013949
1.6705647
1.6452648
1.624246
1.6065775
1.5915564
1.5786453
1.5674293
1.5575837
22.633731
22.36675
21.685695
21.112053
20.384334
19.059091
16.790389
13.373828
9.437861
6.4316354
4.6583558
3.6588635
3.0355038
2.6242968
2.3527093
2.1637365
2.027094
1.9252666
1.8475679
1.7871814
1.7395592
1.7014906
1.6706515
1.6453448
1.6243209
1.6066486
1.5916246
1.5787114
1.5674938
1.5576471
22.636541
22.369565
21.688248
21.11446
20.386876
19.062444
16.795608
13.381414
9.4452293
6.4362674
4.6607288
3.6601848
3.0363067
2.6248359
2.353099
2.1640287
2.0273202
1.9254474
1.8477166
1.7873074
1.7396686
1.7015879
1.6707397
1.6454262
1.6243972
1.606721
1.591694
1.5787786
1.5675595
1.5577117
22.639349
22.372381
21.690805
21.116873
20.389428
19.065806
16.800834
13.389012
9.4526268
6.4409258
4.6631208
3.6615167
3.0371166
2.6253802
2.3534929
2.1643243
2.0275492
1.9256304
1.8478674
1.7874351
1.7397796
1.7016866
1.6708293
1.6455088
1.6244746
1.6067945
1.5917646
1.578847
1.5676263
1.5577774
22.642155
22.375198
21.693367
21.119294
20.391988
19.069178
16.806073
13.39662
9.460054
6.4456086
4.6655318
3.6628593
3.0379338
2.6259301
2.3538911
2.1646233
2.027781
1.9258159
1.8480203
1.7875647
1.7398923
1.7017869
1.6709203
1.6455928
1.6245534
1.6068693
1.5918363
1.5789165
1.5676942
1.5578441
22.64496
22.378016
21.695934
21.121721
20.394556
19.072559
16.811318
13.404238
9.4675097
6.450316
4.6679618
3.6642127
3.0387584
2.6264854
2.3542935
2.1649257
2.0280156
1.9260037
1.8481751
1.7876961
1.7400066
1.7018886
1.6710126
1.6456781
1.6246333
1.6069452
1.5919092
1.5789871
1.5677632
1.5579119
22.647764
22.380834
21.698505
21.124156
20.397134
19.07595
16.816568
13.41187
9.4749964
6.4550495
4.6704113
3.6655771
3.0395901
2.627046
2.3547002
2.1652316
2.0282531
1.9261939
1.8483321
1.7878293
1.7401226
1.7019919
1.6711065
1.6457648
1.6247146
1.6070225
1.5919833
1.5790589
1.5678333
1.5579809
22.650565
22.383653
21.701082
21.126597
20.399721
19.07935
16.821823
13.419515
9.482512
6.4598062
4.6728811
3.6669523
3.0404289
2.6276122
2.3551111
2.1655408
2.0284933
1.9263864
1.848491
1.7879643
1.7402401
1.7020967
1.6712016
1.6458528
1.6247971
1.6071009
1.5920586
1.5791318
1.5679046
1.5580509
22.653366
22.386473
21.703662
21.129046
20.402316
19.082761
16.827084
13.427171
9.4900575
6.4645877
4.6753714
3.6683383
3.041275
2.6281837
2.3555263
2.1658534
2.0287363
1.9265814
1.8486521
1.7881011
1.7403593
1.7022029
1.6712982
1.6459421
1.6248809
1.6071805
1.592135
1.5792059
1.567977
1.5581221
22.656164
22.389293
21.706247
21.131501
20.404921
19.086182
16.832352
13.434839
9.4976332
6.4693934
4.6778817
3.6697349
3.0421286
2.6287607
2.3559457
2.1661695
2.0289823
1.9267787
1.8488152
1.7882397
1.7404802
1.7023107
1.6713962
1.6460327
1.6249659
1.6072613
1.5922126
1.5792811
1.5680504
1.5581943
22.658961
22.392113
21.708836
21.133964
20.407535
19.089614
16.837634
13.442521
9.5052374
6.474222
4.6804134
3.6711425
3.0429895
2.6293432
2.3563696
2.1664891
2.0292311
1.9269785
1.8489804
1.7883803
1.7406027
1.70242
1.6714957
1.6461247
1.6250523
1.6073434
1.5922915
1.5793576
1.5681251
1.5582677
22.661756
22.394934
21.711429
21.136433
20.410158
19.093056
16.842924
13.450216
9.5128731
6.4790748
4.6829671
3.672561
3.0438576
2.6299313
2.3567978
2.1668121
2.0294827
1.9271808
1.8491477
1.7885227
1.7407269
1.7025309
1.6715966
1.646218
1.6251399
1.6074267
1.5923715
1.5794351
1.5682008
1.5583421
22.664549
22.397755
21.714027
21.13891
20.412789
19.096509
16.848223
13.457926
9.5205384
6.4839503
4.6855426
3.6739906
3.0447331
2.6305248
2.3572302
2.1671387
2.0297373
1.9273854
1.8493171
1.7886669
1.7408528
1.7026433
1.6716989
1.6463128
1.6252289
1.6075113
1.5924528
1.5795139
1.5682778
1.5584178
22.66734
22.400576
21.716628
21.141393
20.415431
19.099974
16.85353
13.465646
9.5282342
6.4888482
4.6881402
3.6754311
3.0456158
2.6311239
2.357667
2.1674687
2.0299947
1.9275926
1.8494886
1.788813
1.7409803
1.7027573
1.6718026
1.6464088
1.6253191
1.6075971
1.5925352
1.5795938
1.5683558
1.5584945
22.670129
22.403397
21.719234
21.143883
20.418081
19.10345
16.858844
13.473382
9.5359624
6.4937685
4.690761
3.6768823
3.0465059
2.6317285
2.3581083
2.1678023
2.030255
1.9278021
1.8496623
1.788961
1.7411096
1.7028728
1.6719079
1.6465063
1.6254107
1.6076842
1.5926189
1.579675
1.5684351
1.5585724
22.672917
22.406218
21.721844
21.14638
20.420741
19.106937
16.864167
13.481135
9.543719
6.4987113
4.6934057
3.678344
3.0474032
2.6323386
2.3585539
2.1681394
2.0305182
1.9280141
1.8498381
1.7891108
1.7412405
1.7029899
1.6720146
1.6466051
1.6255035
1.6077725
1.5927037
1.5797573
1.5685155
1.5586514
22.675703
22.409039
21.724458
21.148884
20.42341
19.110436
16.869504
13.488902
9.5515088
6.5036793
4.696071
3.6798165
3.0483082
2.6329546
2.3590039
2.16848
2.0307843
1.9282285
1.8500161
1.7892625
1.7413732
1.7031086
1.6721227
1.6467053
1.6255977
1.6078621
1.5927899
1.5798408
1.568597
1.5587316
22.678487
22.41186
21.727076
21.151395
20.426088
19.113945
16.874853
13.49668
9.5593298
6.5086732
4.6987564
3.6812999
3.0492204
2.633576
2.3594583
2.1688241
2.0310533
1.9284454
1.8501961
1.789416
1.7415076
1.7032287
1.6722323
1.6468069
1.6256931
1.6079529
1.5928771
1.5799254
1.5686797
1.5588128
22.681269
22.414681
21.729698
21.153913
20.428775
19.117466
16.880212
13.504478
9.567182
6.5136955
4.7014617
3.6827941
3.05014
2.6342031
2.3599173
2.1691719
2.0313253
1.9286647
1.8503784
1.7895715
1.7416438
1.7033505
1.6723434
1.6469099
1.6257899
1.608045
1.5929657
1.5800114
1.5687636
1.5588953
22.68405
22.417502
21.732325
21.156437
20.431471
19.120998
16.885581
13.512292
9.5750679
6.5187453
4.7041861
3.6842986
3.0510672
2.6348359
2.3603806
2.1695232
2.0316001
1.9288865
1.8505627
1.7897288
1.7417816
1.7034738
1.6724559
1.6470142
1.625888
1.6081384
1.5930555
1.5800984
1.5688486
1.5589789
22.686828
22.420323
21.734956
21.158968
20.434176
19.124543
16.89096
13.52012
9.5829843
6.5238239
4.7069293
3.6858137
3.0520017
2.6354744
2.3608484
2.1698781
2.0318779
1.9291108
1.8507492
1.7898881
1.7419212
1.7035987
1.67257
1.6471199
1.6259875
1.608233
1.5931465
1.5801867
1.5689349
1.5590637
22.689605
22.423144
21.73759
21.161504
20.43689
19.128099
16.89635
13.527966
9.590935
6.5289315
4.7096915
3.6873395
3.0529437
2.6361186
2.3613207
2.1702366
2.0321586
1.9293376
1.8509378
1.7900492
1.7420624
1.7037251
1.6726854
1.647227
1.6260882
1.6083289
1.5932387
1.5802762
1.5690222
1.5591496
22.69238
22.425964
21.740229
21.164046
20.439614
19.131666
16.901755
13.53583
9.5989169
6.5340667
4.7124732
3.6888762
3.0538933
2.6367684
2.3617975
2.1705987
2.0324424
1.9295669
1.8511286
1.7902123
1.7422053
1.7038532
1.6728024
1.6473355
1.6261904
1.6084261
1.5933322
1.5803669
1.5691109
1.5592367
22.695152
22.428784
21.742871
21.166595
20.442346
19.135246
16.907173
13.54371
9.6069312
6.5392331
4.7152732
3.6904239
3.0548505
2.637424
2.3622788
2.1709644
2.0327291
1.9297986
1.8513215
1.7903772
1.74235
1.7039828
1.6729208
1.6474454
1.6262938
1.6085246
1.593427
1.5804588
1.5692006
1.5593249
22.697923
22.431604
21.745516
21.169149
20.445087
19.138838
16.912603
13.551608
9.6149808
6.5444274
4.7180918
3.691982
3.0558151
2.6380854
2.3627646
2.1713337
2.0330188
1.9300329
1.8515166
1.7905442
1.7424964
1.704114
1.6730407
1.6475568
1.6263986
1.6086244
1.593523
1.580552
1.5692916
1.5594143
22.700691
22.434424
21.748166
21.17171
20.447837
19.142443
16.918045
13.559525
9.6230623
6.5496517
4.7209298
3.693551
3.0567875
2.6387526
2.363255
2.1717067
2.0333115
1.9302698
1.8517139
1.7907131
1.7426446
1.7042469
1.6731621
1.6476695
1.6265047
1.6087254
1.5936202
1.5806463
1.5693837
1.5595048
22.703458
22.437243
21.750818
21.174276
20.450595
19.146059
16.923498
13.56746
9.6311788
6.5549062
4.7237862
3.6951307
3.0577676
2.6394256
2.36375
2.1720833
2.0336072
1.9305092
1.8519134
1.790884
1.7427946
1.7043815
1.673285
1.6477837
1.6266122
1.6088278
1.5937188
1.5807419
1.5694771
1.5595967
22.706222
22.440061
21.753474
21.176848
20.453363
19.149687
16.928965
13.575413
9.6393268
6.5601891
4.7266606
3.6967217
3.0587553
2.6401045
2.3642495
2.1724637
2.033906
1.9307511
1.8521151
1.7910568
1.7429464
1.7045176
1.6734095
1.6478993
1.6267211
1.6089316
1.5938186
1.5808388
1.5695717
1.5596897
22.708984
22.442879
21.756133
21.179425
20.456139
19.153326
16.934448
13.583387
9.647508
6.565504
4.7295545
3.6983237
3.0597508
2.6407894
2.3647536
2.1728477
2.0342078
1.9309957
1.8523189
1.7912316
1.7430999
1.7046554
1.6735354
1.6480164
1.6268313
1.6090366
1.5939197
1.5809369
1.5696676
1.5597838
22.711744
22.445697
21.758796
21.182008
20.458924
19.156978
16.939944
13.591379
9.6557273
6.5708476
4.7324669
3.6999364
3.060754
2.64148
2.3652623
2.1732352
2.0345124
1.9312427
1.852525
1.7914082
1.7432551
1.7047948
1.6736628
1.6481348
1.6269428
1.6091429
1.594022
1.5810362
1.5697646
1.5598791
22.714503
22.448514
21.761461
21.184597
20.461717
19.160641
16.945453
13.599391
9.6639766
6.5762224
4.7353975
3.7015601
3.0617649
2.6421764
2.3657755
2.1736265
2.0348201
1.9314922
1.8527332
1.7915868
1.7434121
1.7049358
1.6737918
1.6482548
1.6270558
1.6092506
1.5941257
1.5811368
1.5698628
1.5599757
22.717259
22.451331
21.76413
21.187191
20.46452
19.164317
16.950976
13.607424
9.6722616
6.5816268
4.7383469
3.7031947
3.0627838
2.6428787
2.3662934
2.1740214
2.0351308
1.9317443
1.8529436
1.7917674
1.7435707
1.7050784
1.6739223
1.6483761
1.6271701
1.6093595
1.5942306
1.5812385
1.5699623
1.5600735
22.720014
22.454148
21.766801
21.189791
20.467331
19.168004
16.956511
13.615476
9.6805822
6.5870622
4.741315
3.7048408
3.0638104
2.643587
2.3668157
2.1744199
2.0354444
1.9319989
1.8531563
1.7919499
1.7437312
1.7052226
1.6740542
1.6484988
1.6272858
1.6094698
1.5943368
1.5813416
1.570063
1.5601724
22.722767
22.456964
21.769475
21.192396
20.47015
19.171702
16.962062
13.623549
9.6889337
6.592528
4.7443013
3.7064981
3.0648449
2.644301
2.3673427
2.1748221
2.0357611
1.932256
1.8533711
1.7921343
1.7438933
1.7053684
1.6741877
1.6486229
1.6274028
1.6095813
1.5944441
1.5814458
1.5701648
1.5602725
22.725517
22.459779
21.772152
21.195007
20.472977
19.175413
16.967629
13.631643
9.6973232
6.5980244
4.7473058
3.7081664
3.0658874
2.6450211
2.3678742
2.175228
2.0360807
1.9325155
1.8535882
1.7923207
1.7440573
1.7055158
1.6743227
1.6487485
1.6275213
1.6096942
1.5945528
1.5815513
1.5702679
1.5603738
22.728266
22.462594
21.774832
21.197623
20.475813
19.179136
16.97321
13.639757
9.7057479
6.6035521
4.7503295
3.7098456
3.0669377
2.645747
2.3684103
2.1756374
2.0364033
1.9327776
1.8538074
1.7925089
1.7442229
1.7056648
1.6744592
1.6488754
1.627641
1.6098084
1.5946628
1.5816579
1.5703722
1.5604763
22.731012
22.465409
21.777515
21.200245
20.478656
19.182871
16.978805
13.647892
9.7142042
6.6091097
4.7533714
3.7115362
3.067996
2.646479
2.368951
2.1760505
2.0367289
1.9330422
1.8540288
1.7926991
1.7443903
1.7058153
1.6745972
1.6490038
1.6277621
1.6099239
1.594774
1.5817659
1.5704777
1.5605799
22.733756
22.468222
21.7802
21.202872
20.481508
19.186617
16.984413
13.65605
9.7227001
6.6147
4.756431
3.7132384
3.0690623
2.6472169
2.3694963
2.1764672
2.0370575
1.9333092
1.8542523
1.7928911
1.7445594
1.7059675
1.6747366
1.6491336
1.6278845
1.6100406
1.5948864
1.5818749
1.5705843
1.5606847
22.736498
22.471035
21.782888
21.205505
20.484368
19.190375
16.990036
13.664228
9.7312272
6.6203194
4.7595099
3.7149517
3.0701366
2.6479606
2.3700462
2.1768876
2.037389
1.9335788
1.854478
1.7930851
1.7447303
1.7061214
1.6748776
1.6492648
1.6280083
1.6101587
1.5950001
1.5819853
1.5706922
1.5607908
22.739237
22.473847
21.78558
21.208144
20.487236
19.194144
16.995676
13.672428
9.7397915
6.625972
4.7626068
3.7166764
3.0712189
2.6487104
2.3706006
2.1773116
2.0377236
1.9338509
1.8547059
1.7932809
1.744903
1.7062768
1.67502
1.6493974
1.6281334
1.6102781
1.595115
1.5820969
1.5708013
1.5608979
22.741974
22.476658
21.788274
21.210788
20.490111
19.197924
17.00133
13.68065
9.7483925
6.631654
4.7657217
3.7184124
3.0723095
2.649466
2.3711597
2.1777392
2.038061
1.9341255
1.8549358
1.7934787
1.7450774
1.7064338
1.6751639
1.6495314
1.6282598
1.6103988
1.5952312
1.5822097
1.5709116
1.5610063
22.744709
22.479468
21.790971
21.213436
20.492994
19.201716
17.007
13.688893
9.7570268
6.6373686
4.7688556
3.7201603
3.0734082
2.6502277
2.3717232
2.1781705
2.0384015
1.9344026
1.8551679
1.7936784
1.7452535
1.7065923
1.6753093
1.6496668
1.6283876
1.6105207
1.5953486
1.5823237
1.571023
1.5611158
22.747442
22.482278
21.793671
21.21609
20.495885
19.205519
17.012683
13.69716
9.7656999
6.6431143
4.7720076
3.7219196
3.0745148
2.6509953
2.3722913
2.1786053
2.0387448
1.9346822
1.8554022
1.7938799
1.7454314
1.7067525
1.6754562
1.6498037
1.6285167
1.610644
1.5954673
1.5824389
1.5711357
1.5612265
22.750172
22.485086
21.796374
21.218748
20.498783