/*--------------------------------*- C++ -*----------------------------------*\
| =========                 |                                                 |
| \\      /  F ield         | OpenFOAM: The Open Source CFD Toolbox           |
|  \\    /   O peration     | Version:  v2012                                 |
|   \\  /    A nd           | Website:  www.openfoam.com                      |
|    \\/     M anipulation  |                                                 |
\*---------------------------------------------------------------------------*/
FoamFile
{
    version     2.0;
    format      ascii;
    class       volScalarField;
    location    "250";
    object      T;
}
// * * * * * * * * * * * * * * * * * * * * * * * * * * * * * * * * * * * * * //

dimensions      [0 0 0 1 0 0 0];


internalField   nonuniform List<scalar> 
24000
(
42.54859
42.696491
43.128236
43.562886
44.204351
45.632796
49.151277
58.584541
80.169183
111.52472
146.3376
181.23201
215.34184
246.69862
273.34216
295.75047
314.44471
330.02278
343.0174
353.86959
362.9465
370.56426
376.98922
382.44043
387.09583
391.09944
394.56786
397.59576
400.26026
402.62437
42.547321
42.695218
43.127122
43.561812
44.203104
45.631298
49.149592
58.557188
79.989171
111.18453
145.87574
180.67709
214.72997
246.09147
272.758
295.20054
313.92957
329.54175
342.56837
353.44876
362.54853
370.18358
376.62096
382.0808
386.74211
390.74977
394.22105
397.25109
399.91728
402.28283
42.546011
42.693995
43.126105
43.560776
44.201665
45.628815
49.139531
58.513431
79.885067
111.03245
145.68348
180.45095
214.47674
245.82827
272.49022
294.93457
313.66396
329.27967
342.31318
353.20345
362.31461
369.96044
376.40676
381.87331
386.53933
390.55015
394.02353
397.055
399.72223
402.08861
42.5447
42.692735
43.12495
43.559549
44.200026
45.625564
49.129295
58.480482
79.817226
110.94703
145.5868
180.35428
214.3881
245.75637
272.43586
294.90169
313.66199
329.30657
342.36255
353.26759
362.38691
370.03651
376.48419
381.95102
386.61694
390.62759
394.10081
397.1321
399.79911
402.16522
42.543389
42.691459
43.123732
43.558242
44.198215
45.622037
49.119444
58.451616
79.760743
110.88151
145.51414
180.28197
214.31762
245.68912
272.37411
294.84561
313.61076
329.25947
342.31918
353.22783
362.35059
370.00326
376.4535
381.92234
386.58977
390.6015
394.07546
397.10723
399.77455
402.14081
42.542078
42.690166
43.122464
43.556858
44.196346
45.618488
49.109916
58.424446
79.707315
110.81965
145.45332
180.22777
214.27097
245.64876
272.34046
294.81889
313.5906
329.24508
342.30949
353.22169
362.347
370.00144
376.45291
381.92261
386.59064
390.60281
394.07706
397.10902
399.77643
402.14271
42.540768
42.688864
43.121157
43.555431
44.194455
45.614923
49.10047
58.397712
79.653775
110.76042
145.39699
180.17931
214.23105
245.615
272.31209
294.79536
313.5713
329.22931
342.29662
353.21116
362.33834
369.99429
376.44694
381.91756
386.58628
390.59895
394.07356
397.10576
399.7733
402.13962
42.539457
42.687552
43.11982
43.553983
44.192551
45.611334
49.091014
58.371027
79.600063
110.70164
145.34199
180.1329
214.19388
245.58437
272.28685
294.7748
313.55478
329.21615
342.2862
353.20291
362.33181
369.98908
376.44277
381.91418
386.5835
390.59661
394.07152
397.10392
399.77157
402.13793
42.538147
42.686231
43.118466
43.55252
44.190634
45.607714
49.081507
58.344251
79.546176
110.64229
145.28678
180.08665
214.15714
245.55433
272.26217
294.75466
313.5385
329.20304
342.27564
353.19439
362.32488
369.98342
376.43809
381.91026
386.58016
390.59369
394.0689
397.10149
399.76924
402.13564
42.536837
42.684901
43.1171
43.551045
44.188704
45.604062
49.071935
58.317331
79.49211
110.58198
145.23081
180.03981
214.11994
245.52395
272.23721
294.73427
313.52194
329.18961
342.26473
353.18547
362.31753
369.9773
376.43293
381.90584
386.57631
390.59025
394.06575
397.09853
399.76639
402.13283
42.535527
42.683566
43.115727
43.54956
44.186761
45.60038
49.062295
58.290243
79.43787
110.52055
145.17387
179.9921
214.0819
245.49281
272.21155
294.71321
313.50475
329.17556
342.2532
353.17593
362.30956
369.97055
376.42714
381.9008
386.57182
390.58619
394.06198
397.09495
399.76292
402.1294
42.534218
42.682226
43.114345
43.548066
44.184805
45.596671
49.052594
58.262996
79.383477
110.458
145.11591
179.94343
214.04291
245.46075
272.18503
294.69135
313.4868
329.16079
342.24097
353.16572
362.30092
369.96316
376.42071
381.89512
386.56671
390.58149
394.05758
397.09075
399.75883
402.12535
42.532908
42.680883
43.112957
43.546565
44.182838
45.592939
49.04284
58.235632
79.328936
110.39438
145.05698
179.89383
214.00294
245.42774
272.15761
294.66865
313.46806
329.14528
342.22803
353.15482
362.29162
369.95511
376.41365
381.88881
386.56098
390.57619
394.05259
397.08595
399.75415
402.12072
42.531599
42.679538
43.111564
43.545056
44.180861
45.589191
49.033043
58.20814
79.274255
110.32974
144.99714
179.84334
213.96205
245.39381
272.12931
294.64513
313.44856
329.12903
342.2144
353.14326
362.28168
369.94644
376.40597
381.8819
386.55465
390.57029
394.04699
397.08056
399.74888
402.11549
42.530291
42.67819
43.110165
43.54354
44.178876
45.585431
49.023222
58.18053
79.219459
110.2641
144.93647
179.79203
213.92029
245.35901
272.10016
294.62081
313.4283
329.11208
342.2001
353.13105
362.27111
369.93716
376.3977
381.87441
386.54775
390.56383
394.04085
397.07462
399.74307
402.10973
42.528982
42.676841
43.108762
43.542017
44.176883
45.581656
49.013379
58.152836
79.164543
110.19753
144.87502
179.73994
213.87771
245.32339
272.07023
294.59574
313.40733
329.09446
342.18516
353.11823
362.25996
369.92731
376.38887
381.86637
386.54031
390.55683
394.03416
397.06815
399.73672
402.10344
42.527675
42.675489
43.107354
43.540489
44.174881
45.577868
49.003513
58.125065
79.109523
110.13007
144.81287
179.68715
213.83438
245.28701
272.03955
294.56997
313.3857
329.07621
342.16963
353.10485
362.24826
369.91694
376.37953
381.85782
386.53237
390.54935
394.027
397.0612
399.7299
402.09667
42.526369
42.674137
43.105943
43.538955
44.172871
45.574069
48.993626
58.097209
79.054414
110.06174
144.75006
179.6337
213.79038
245.24994
272.0082
294.54356
313.36347
329.0574
342.15356
353.09095
362.23607
369.90608
376.36971
381.84881
386.52397
390.5414
394.01938
397.0538
399.72263
402.08946
42.525065
42.672783
43.104527
43.537415
44.170853
45.570258
48.983724
58.069282
78.999129
109.99271
144.68666
179.57964
213.74573
245.21223
271.97622
294.51655
313.34068
329.03806
342.13699
353.07658
362.22342
369.89478
376.35946
381.83938
386.51516
390.53305
394.01136
397.046
399.71496
402.08185
42.523761
42.671428
43.103109
43.535871
44.168829
45.566437
48.973808
58.041314
78.943521
109.92326
144.62269
179.52502
213.7005
245.1739
271.94365
294.48898
313.31735
329.01821
342.11994
353.06174
362.21032
369.88305
376.34879
381.82953
386.50594
390.5243
394.00294
397.03781
399.7069
402.07385
42.522458
42.670071
43.101688
43.534321
44.166797
45.562608
48.963888
58.013281
78.887598
109.85341
144.5582
179.46985
213.6547
245.13501
271.91051
294.46086
313.29351
328.99787
342.10243
353.04647
362.19681
369.87091
376.33773
381.8193
386.49635
390.51517
393.99415
397.02925
399.69848
402.06549
42.521156
42.668714
43.100264
43.532766
44.164759
45.558769
48.953969
57.985188
78.831365
109.78316
144.4932
179.41417
213.60838
245.09559
271.87685
294.43224
313.26919
328.97708
342.08448
353.03078
362.18289
369.85838
376.32628
381.80869
386.48637
390.50567
393.98499
397.02032
399.68969
402.05677
42.519855
42.667357
43.098837
43.531206
44.162714
45.554923
48.944047
57.957063
78.77485
109.71251
144.42772
179.35802
213.56157
245.05565
271.84268
294.40313
313.2444
328.95585
342.06612
353.01469
362.16858
369.84547
376.31447
381.79773
386.47605
390.49584
393.9755
397.01106
399.68057
402.04771
42.518554
42.666
43.09741
43.529643
44.160662
45.551068
48.934117
57.928893
78.718051
109.64147
144.36176
179.3014
213.51427
245.01522
271.80802
294.37355
313.21917
328.93419
342.04734
352.99821
362.1539
369.8322
376.3023
381.78641
386.46539
390.48565
393.96567
397.00146
399.67111
402.03833
42.517254
42.664642
43.09598
43.528078
44.158604
45.547206
48.92418
57.900671
78.660978
109.57003
144.29535
179.24431
213.4665
244.97431
271.77288
294.3435
313.19349
328.91211
342.02817
352.98134
362.13885
369.81857
376.28978
381.77475
386.45439
390.47514
393.95551
396.99154
399.66134
402.02862
42.515955
42.663284
43.094546
43.526507
44.15654
45.543337
48.914236
57.872413
78.603646
109.4982
144.2285
179.18679
213.4183
244.93294
271.73729
294.31302
313.16739
328.88962
342.00861
352.96411
362.12344
369.80459
376.27692
381.76276
386.44305
390.4643
393.94502
396.98129
399.65124
402.01859
42.514656
42.661926
43.09311
43.524934
44.154474
45.539465
48.904287
57.844127
78.546045
109.42598
144.16121
179.12885
213.36965
244.89113
271.70124
294.28209
313.14086
328.86674
341.98867
352.9465
362.10768
369.79028
376.26374
381.75044
386.4314
390.45315
393.93422
396.97074
399.64084
402.00826
42.513359
42.660566
43.091671
43.523356
44.152402
45.535593
48.894345
57.815794
78.488194
109.35337
144.09349
179.07048
213.32059
244.84888
271.66476
294.25075
313.11394
328.84347
341.96836
352.92855
362.09157
369.77563
376.25022
381.73781
386.41944
390.44168
393.92312
396.95988
399.63013
401.99763
42.512062
42.659206
43.090228
43.521774
44.150323
45.531713
48.884407
57.787422
78.430094
109.28038
144.02535
179.01172
213.27113
244.80622
271.62786
294.21899
313.08662
328.81982
341.94769
352.91025
362.07514
369.76066
376.2364
381.72487
386.40718
390.42993
393.91173
396.94874
399.61915
401.98671
42.510769
42.657846
43.088783
43.520187
44.148238
45.527826
48.874462
57.759033
78.371742
109.207
143.9568
178.95256
213.22127
244.76315
271.59056
294.18684
313.05893
328.79583
341.92668
352.89163
362.05839
369.74538
376.22227
381.71163
386.39462
390.41788
393.90005
396.93731
399.60786
401.97551
42.509477
42.656485
43.087334
43.518595
44.146147
45.523931
48.864512
57.730602
78.313153
109.13323
143.88784
178.893
213.17101
244.71967
271.55285
294.15429
313.03084
328.77146
341.90532
352.87267
362.04132
369.7298
376.20785
381.69811
386.38178
390.40555
393.88809
396.9256
399.59632
401.96404
42.508186
42.655124
43.085883
43.516999
44.144049
45.52003
48.854557
57.70213
78.254315
109.05908
143.81847
178.83304
213.12035
244.67578
271.51472
294.12134
313.00238
328.74672
341.88362
352.85338
362.02394
369.7139
376.19312
381.68428
386.36865
390.39293
393.87585
396.91361
399.58449
401.95228
42.506895
42.653763
43.084429
43.515398
44.141946
45.51612
48.844596
57.67364
78.195241
108.98455
143.74869
178.77271
213.0693
244.63149
271.47619
294.088
312.97354
328.72163
341.86157
352.83375
362.00623
369.6977
376.17809
381.67017
386.35524
390.38004
393.86333
396.90136
399.57239
401.94027
42.505606
42.652404
43.082972
43.513793
44.139836
45.512203
48.834638
57.645118
78.135932
108.90964
143.67852
178.71199
213.01787
244.58681
271.43728
294.05428
312.94435
328.6962
341.8392
352.81382
361.98822
369.68121
376.16278
381.65577
386.34154
390.36686
393.85053
396.88882
399.56001
401.92797
42.504318
42.651045
43.081512
43.512183
44.13772
45.508279
48.824686
57.616554
78.076381
108.83434
143.60794
178.65089
212.96606
244.54173
271.39796
294.02016
312.91477
328.6704
341.81647
352.79356
361.9699
369.66441
376.14717
381.64109
386.32756
390.35342
393.83747
396.87602
399.54737
401.91541
42.50303
42.649685
43.080049
43.510568
44.135601
45.504347
48.814729
57.587965
78.016601
108.75867
143.53697
178.58941
212.91386
244.49624
271.35823
293.98565
312.88481
328.64424
341.79341
352.77297
361.95126
369.6473
376.13127
381.62612
386.3133
390.33969
393.82413
396.86294
399.53446
401.90258
42.501744
42.648325
43.078583
43.508948
44.133474
45.500407
48.804765
57.559354
77.956584
108.68262
143.4656
178.52755
212.86129
244.45036
271.3181
293.95075
312.85447
328.61772
341.77
352.75205
361.9323
369.62989
376.11507
381.61086
386.29876
390.32569
393.81052
396.8496
399.52129
401.8895
42.500458
42.646964
43.077114
43.507324
44.131342
45.496459
48.794796
57.530702
77.896342
108.60619
143.39384
178.46531
212.80835
244.40411
271.27759
293.91548
312.82378
328.59087
341.74627
352.73082
361.91305
369.61219
376.09858
381.59531
386.28393
390.3114
393.79662
396.83596
399.50782
401.87612
42.499174
42.645603
43.075643
43.505696
44.129203
45.492503
48.784819
57.50202
77.835872
108.52939
143.32168
178.4027
212.75503
244.35746
271.23669
293.87981
312.79272
328.56364
341.72219
352.70925
361.89347
369.59417
376.08179
381.57947
386.26882
390.29683
393.78245
396.82207
399.4941
401.86248
42.49789
42.644242
43.074168
43.504062
44.127057
45.488549
48.77484
57.473326
77.77517
108.45221
143.24913
178.33972
212.70132
244.31041
271.19538
293.84376
312.76127
328.53607
341.69777
352.68735
361.87357
369.57585
376.06469
381.56333
386.25341
390.28197
393.76798
396.80788
399.48008
401.84855
42.496608
42.642881
43.072691
43.502424
44.124905
45.484588
48.764869
57.444591
77.714248
108.37465
143.17618
178.27636
212.64723
244.26297
271.15366
293.8073
312.72944
328.50811
341.67298
352.66511
361.85334
369.5572
376.04729
381.54689
386.23771
390.26683
393.75325
396.79342
399.46579
401.83435
42.495326
42.641519
43.071211
43.500781
44.122746
45.480619
48.754894
57.41582
77.653094
108.29673
143.10283
178.21262
212.59276
244.21513
271.11155
293.77046
312.69725
328.47981
341.64787
352.64255
361.8328
369.53825
376.02958
381.53015
386.22171
390.25139
393.7382
396.77865
399.45121
401.81986
42.494045
42.640158
43.069728
43.499133
44.12058
45.476642
48.744909
57.387034
77.59172
108.21844
143.02909
178.14849
212.5379
244.16689
271.06904
293.73322
312.66466
328.45114
341.6224
352.61965
361.81193
369.51899
376.01157
381.51312
386.20543
390.23566
393.72289
396.76362
399.43635
401.80509
42.492766
42.638796
43.068242
43.497481
44.118408
45.472655
48.734916
57.358213
77.530121
108.13977
142.95494
178.08399
212.48267
244.11825
271.02612
293.69558
312.63169
328.4221
341.59657
352.59641
361.79074
369.4994
375.99326
381.49578
386.18884
390.21964
393.70727
396.74829
399.4212
401.79004
42.491489
42.637434
43.066753
43.495823
44.116229
45.46866
48.724915
57.329356
77.468303
108.06075
142.8804
178.01911
212.42706
244.06922
270.98279
293.65755
312.59833
328.39268
341.57039
352.57282
361.76921
369.4795
375.97462
381.47814
386.17196
390.20333
393.69138
396.73269
399.40578
401.77471
42.490214
42.636071
43.065263
43.494161
44.114043
45.464656
48.714904
57.300483
77.406275
107.98135
142.80546
177.95387
212.37108
244.0198
270.93909
293.61914
312.56462
328.36293
341.54388
352.54892
361.74738
369.45929
375.95569
381.4602
386.15478
390.18672
393.67518
396.71677
399.39005
401.75908
42.488939
42.634709
43.063771
43.492494
44.111854
45.460642
48.704903
57.271583
77.344026
107.9016
142.73013
177.88825
212.31473
243.97
270.89499
293.58034
312.53053
328.3328
341.51702
352.52468
361.72521
369.43877
375.93646
381.44196
386.13731
390.16983
393.65871
396.70059
399.37405
401.74318
42.487666
42.633346
43.062276
43.490823
44.109659
45.456619
48.694897
57.242643
77.281571
107.82148
142.6544
177.82227
212.258
243.9198
270.85049
293.54115
312.49606
328.30231
341.48981
352.50011
361.70273
369.41793
375.91691
381.42342
386.11954
390.15263
393.64194
396.68412
399.35776
401.72699
42.486393
42.631984
43.060779
43.489149
44.107457
45.452586
48.684881
57.213686
77.218898
107.74101
142.57827
177.7559
212.20089
243.8692
270.80559
293.50155
312.4612
328.27145
341.46223
352.47518
361.6799
369.39676
375.89704
381.40457
386.10146
390.13514
393.62488
396.66735
399.34119
401.71051
42.485122
42.630624
43.059282
43.487471
44.105248
45.448543
48.674854
57.184704
77.156018
107.66018
142.50173
177.68915
212.14339
243.81822
270.76028
293.46157
312.42597
328.24024
341.43433
352.44993
361.65676
369.37528
375.87687
381.38541
386.08308
390.11735
393.60751
396.65028
399.3243
401.69373
42.483852
42.629263
43.057783
43.485791
44.103032
45.444491
48.664815
57.15568
77.092925
107.579
142.42477
177.62201
212.08551
243.76682
270.71457
293.42119
312.39034
328.20864
341.40605
352.42433
361.63328
369.35348
375.85638
381.36595
386.06441
390.09926
393.58986
396.63293
399.30714
401.67667
42.482582
42.627903
43.05628
43.484106
44.100809
45.440436
48.654765
57.126631
77.029625
107.49747
142.34741
177.5545
212.02726
243.71504
270.66844
293.3804
312.35432
328.17667
341.37742
352.39839
361.60947
369.33135
375.83558
381.34617
386.04542
390.08087
393.5719
396.61527
399.28968
401.65932
42.481314
42.626542
43.054776
43.482417
44.098579
45.436376
48.644715
57.097567
76.96613
107.41559
142.26965
177.48662
211.96863
243.66286
270.62192
293.33922
312.31792
328.14433
341.34842
352.37209
361.58532
369.30889
375.81445
381.32608
386.02613
390.06218
393.55365
396.59733
399.27194
401.64168
42.480047
42.625182
43.053268
43.480723
44.096342
45.432305
48.634665
57.068464
76.90243
107.33337
142.19148
177.41837
211.90965
243.61031
270.57502
293.29767
312.28116
328.11164
341.31909
352.34547
361.56085
369.28613
375.79302
381.30569
386.00653
390.04319
393.53509
396.57908
399.25388
401.62373
42.478781
42.623822
43.051758
43.479025
44.094101
45.428223
48.624602
57.039332
76.838536
107.25082
142.11289
177.34972
211.85028
243.55735
270.52771
293.25571
312.24401
328.07858
341.2894
352.3185
361.53605
369.26303
375.77127
381.28498
385.98663
390.02389
393.51624
396.56054
399.23554
401.6055
42.477517
42.622462
43.050246
43.477321
44.091852
45.424131
48.614526
57.010182
76.774437
107.16793
142.03389
177.28071
211.79053
243.504
270.48
293.21335
312.20647
328.04514
341.25935
352.29119
361.51091
369.23961
375.7492
381.26396
385.96642
390.00429
393.49709
396.5417
399.2169
401.58696
42.476254
42.621102
43.048731
43.475613
44.089597
45.420028
48.604435
56.980993
76.710146
107.08471
141.95446
177.2113
211.7304
243.45025
270.43188
293.17059
312.16854
328.01132
341.22892
352.26352
361.48542
369.21586
375.7268
381.24263
385.9459
389.98439
393.47763
396.52256
399.19796
401.56814
42.474994
42.619742
43.047214
43.473901
44.087334
45.415915
48.594329
56.951771
76.645659
107.00117
141.8746
177.14151
211.6699
243.39611
270.38337
293.12744
312.13023
327.97714
341.19817
352.23552
361.45962
369.19179
375.70409
381.22098
385.92507
389.96417
393.45787
396.50311
399.17872
401.54901
42.473736
42.618383
43.045694
43.472184
44.085064
45.41179
48.584217
56.922531
76.580982
106.9173
141.79431
177.07135
211.60902
243.34159
270.33445
293.08389
312.09154
327.94259
341.16704
352.20716
361.43347
369.16738
375.68106
381.19902
385.90393
389.94366
393.43781
396.48336
399.15918
401.52959
42.472479
42.617027
43.044172
43.470462
44.082787
45.407653
48.574105
56.893256
76.516117
106.83312
141.71359
177.0008
211.54778
243.28667
270.28514
293.03994
312.05245
327.90765
341.13554
352.17846
361.40698
369.14265
375.6577
381.17674
385.88248
389.92282
393.41743
396.46331
399.13934
401.50986
42.471223
42.615671
43.042648
43.468736
44.080503
45.403506
48.563979
56.863946
76.451062
106.74863
141.63243
176.92987
211.48617
243.23137
270.23541
292.99559
312.01296
327.87233
341.10367
352.14938
361.38013
369.11756
375.63401
381.15412
385.8607
389.90168
393.39675
396.44295
399.11919
401.48982
42.469968
42.614316
43.041121
43.467005
44.078211
45.399346
48.553836
56.834616
76.385828
106.66383
141.55084
176.85856
211.42421
243.17569
270.18531
292.95086
311.97312
327.83667
341.07147
352.11999
361.35297
369.09217
375.61
381.1312
385.83861
389.88022
393.37575
396.42228
399.09873
401.46948
42.468714
42.61296
43.039592
43.46527
44.075913
45.395175
48.543677
56.805252
76.320404
106.57873
141.4688
176.78687
211.36187
243.11962
270.13481
292.90573
311.93289
327.80062
341.03891
352.09024
361.32547
369.06645
375.58568
381.10797
385.81622
389.85846
393.35446
396.40132
399.07798
401.44885
42.467461
42.611606
43.038061
43.463531
44.073607
45.391002
48.5335
56.77585
76.254799
106.49333
141.38629
176.71481
211.29916
243.06317
270.0839
292.86021
311.89227
327.76421
341.00598
352.06014
361.29763
369.04039
375.56103
381.08442
385.79351
389.83639
393.33286
396.38005
399.05693
401.42792
42.466209
42.610251
43.036528
43.461787
44.071294
45.386821
48.523313
56.746423
76.189006
106.40764
141.30332
176.64235
211.23607
243.00631
270.03258
292.81427
311.85124
327.7274
340.97267
352.02968
361.26943
369.01399
375.53604
381.06053
385.77048
389.81401
393.31095
396.35847
399.03556
401.40668
42.464959
42.608897
43.034993
43.46004
44.068976
45.382628
48.513126
56.716965
76.123035
106.32167
141.21987
176.56951
211.17263
242.94907
269.98087
292.76795
311.80985
327.69023
340.93903
351.99888
361.24091
368.98727
375.51074
381.03633
385.74713
389.7913
393.28872
396.33657
399.01388
401.38512
42.46371
42.607544
43.033456
43.458287
44.066654
45.378423
48.502921
56.687469
76.056883
106.23541
141.13595
176.4963
211.10883
242.89146
269.92877
292.72124
311.76806
327.65268
340.90501
351.96772
361.21204
368.96021
375.4851
381.01181
385.72347
389.76829
393.26618
396.31437
398.99191
401.36327
42.462462
42.60619
43.031916
43.456531
44.064324
45.374207
48.492698
56.657948
75.990553
106.14887
141.05153
176.42271
211.04468
242.83346
269.87627
292.67412
311.72589
327.61476
340.87063
351.93622
361.18283
368.93281
375.45914
380.98697
385.69948
389.74496
393.24333
396.29186
398.96962
401.34111
42.461215
42.604838
43.030375
43.454771
44.061988
45.369978
48.482457
56.628395
75.924037
106.06207
140.9666
176.34875
210.98016
242.77506
269.82336
292.6266
311.6833
327.57645
340.83586
351.90434
361.15326
368.90507
375.43283
380.96179
385.67517
389.7213
393.22017
396.26904
398.94702
401.31863
42.459969
42.603485
43.028832
43.453006
44.059645
45.365738
48.472197
56.598801
75.857345
105.97501
140.88116
176.27441
210.91528
242.71629
269.77005
292.57868
311.64035
327.53777
340.80076
351.87214
361.12337
368.87701
375.40621
380.93629
385.65055
389.69733
393.19668
396.2459
398.9241
401.29585
42.458724
42.602134
43.027289
43.451238
44.057295
45.361485
48.461923
56.56918
75.790471
105.8877
140.79517
176.1997
210.85002
242.65711
269.71633
292.53035
311.59699
327.49871
340.76527
351.83956
361.09311
368.8486
375.37925
380.91047
385.6256
389.67305
393.17289
396.22245
398.90088
401.27276
42.457483
42.600782
43.025744
43.449468
44.054938
45.357221
48.451649
56.539528
75.723417
105.80013
140.70865
176.12463
210.78441
242.59754
269.66221
292.48162
311.55324
327.45926
340.72942
351.80663
361.06252
368.81985
375.35197
380.88432
385.60033
389.64845
393.14878
396.19869
398.87735
401.24936
42.456242
42.599432
43.024197
43.447695
44.052576
45.352945
48.441356
56.509833
75.656184
105.71233
140.62159
176.04921
210.71843
242.53758
269.60766
292.43247
311.50908
327.41941
340.69317
351.77331
361.03155
368.79075
375.32433
380.85783
385.57473
389.62352
393.12435
396.17461
398.8535
401.22564
42.455003
42.598081
43.02265
43.445922
44.050209
45.348657
48.431044
56.48011
75.588765
105.62423
140.53408
175.97346
210.65212
242.47723
269.55273
292.38294
311.46455
327.37921
340.65659
351.73968
361.00027
368.76133
375.29638
380.83103
385.54881
389.59828
393.0996
396.15021
398.82933
401.20161
42.453766
42.596732
43.021103
43.444145
44.047835
45.34436
48.420711
56.450356
75.52117
105.53578
140.44621
175.89737
210.58545
242.4165
269.49739
292.33299
311.41962
327.33862
340.61963
351.70567
360.96862
368.73156
375.26809
380.80389
385.52257
389.57271
393.07453
396.1255
398.80486
401.17727
42.452529
42.595385
43.019555
43.442364
44.045455
45.340062
48.410359
56.420558
75.453389
105.44698
140.35799
175.82094
210.51841
242.35537
269.44164
292.28265
311.37429
327.29765
340.5823
351.67132
360.93664
368.70146
375.23947
380.77643
385.49601
389.54683
393.04915
396.10048
398.78007
401.15262
42.451293
42.594039
43.018004
43.440579
44.043068
45.335753
48.399992
56.390729
75.385432
105.3578
140.26943
175.74417
210.45101
242.29385
269.38547
292.23188
311.32855
327.25627
340.54457
351.63657
360.90428
368.67099
375.21049
380.74863
385.46911
389.52062
393.02345
396.07513
398.75497
401.12766
42.450059
42.592693
43.016452
43.438791
44.040675
45.331431
48.389624
56.360869
75.317293
105.26829
140.18051
175.66707
210.38325
242.23195
269.32891
292.18072
311.28244
327.21454
340.50651
351.6015
360.8716
368.64021
375.18121
380.72051
385.44189
389.49409
392.99743
396.04947
398.72955
401.10238
42.448826
42.591348
43.014899
43.436999
44.038276
45.327098
48.379236
56.330967
75.248981
105.17841
140.09124
175.58963
210.31513
242.16965
269.27194
292.12915
311.23592
327.1724
340.46806
351.56605
360.83855
368.60907
375.15157
380.69206
385.41435
389.46723
392.97109
396.02349
398.70382
401.07678
42.447594
42.590003
43.013343
43.435203
44.03587
45.322754
48.368828
56.301033
75.180492
105.08819
140.00164
175.51185
210.24666
242.10695
269.21456
292.07717
311.189
327.12989
340.42923
351.53024
360.80515
368.57759
375.1216
380.66327
385.38648
389.44006
392.94442
395.9972
398.67776
401.05087
42.446364
42.588659
43.011786
43.433404
44.033458
45.318398
48.3584
56.27107
75.111607
104.99763
139.91169
175.43374
210.17783
242.04386
269.15676
292.02478
311.14167
327.08697
340.39001
351.49404
360.77138
368.54573
375.09127
380.63413
385.35826
389.41254
392.91743
395.97057
398.65138
401.02464
42.445134
42.587316
43.010227
43.431602
44.031039
45.314031
48.347951
56.241064
75.042775
104.90671
139.82139
175.3553
210.10865
241.98038
269.09858
291.972
311.09397
327.0437
340.35046
351.45752
360.73729
368.51357
375.06063
380.60467
385.32972
389.3847
392.89011
395.94362
398.62468
400.99808
42.443906
42.585973
43.008667
43.429796
44.028615
45.309653
48.337493
56.211026
74.973771
104.81546
139.73076
175.27652
210.0391
241.9165
269.03997
291.9188
311.04585
327.00003
340.31051
351.42062
360.70282
368.48104
375.02963
380.57487
385.30085
389.35654
392.86246
395.91635
398.59766
400.97121
42.442679
42.58463
43.007104
43.427986
44.026187
45.305263
48.32703
56.180959
74.904599
104.72386
139.63978
175.1974
209.96917
241.85223
268.98095
291.8652
310.99734
326.95597
340.2702
351.38336
360.66802
368.44818
374.9983
380.54475
385.27165
389.32805
392.8345
395.88876
398.57032
400.94402
42.441454
42.583288
43.00554
43.426173
44.023755
45.300863
48.316547
56.150852
74.835259
104.63192
139.54847
175.11796
209.8989
241.78758
268.92153
291.81119
310.94843
326.91151
340.22949
351.34573
360.63284
368.41495
374.96662
380.51428
385.24212
389.29923
392.80621
395.86085
398.54266
400.91651
42.440232
42.581949
43.003975
43.424357
44.021318
45.296455
48.306045
56.120715
74.765758
104.53965
139.45682
175.03818
209.82827
241.72254
268.86172
291.75679
310.89915
326.86671
340.18846
351.30777
360.59734
368.38142
374.93463
380.48349
385.21227
389.27009
392.7776
395.83262
398.51468
400.88868
42.439012
42.580612
43.002408
43.422537
44.018875
45.292045
48.295523
56.090549
74.696091
104.44705
139.36484
174.95807
209.75729
241.6571
268.80149
291.70198
310.84946
326.8215
340.14703
351.26942
360.56148
368.34752
374.90228
380.45237
385.18209
389.24063
392.74867
395.80407
398.48639
400.86054
42.437792
42.579275
43.000839
43.420715
44.016426
45.287627
48.284982
56.060344
74.626266
104.35411
139.27251
174.87764
209.68595
241.59128
268.74087
291.64677
310.79939
326.77592
340.10524
351.23073
360.52527
368.31329
374.86961
380.42091
385.15158
389.21084
392.71942
395.7752
398.45778
400.83209
42.436574
42.577939
42.999268
43.418888
44.013972
45.283198
48.274436
56.030109
74.556277
104.26084
139.17986
174.79685
209.61424
241.52505
268.67983
291.59114
310.7489
326.72994
340.06305
351.19166
360.48869
368.27869
374.83658
380.38911
385.12074
389.18072
392.68984
395.74601
398.42885
400.80331
42.435358
42.576603
42.997696
43.417059
44.011513
45.278758
48.263882
55.999846
74.486133
104.16725
139.08687
174.71575
209.54217
241.45845
268.6184
291.53514
310.69806
326.68362
340.02054
351.15227
360.4518
368.24379
374.80325
380.35701
385.08958
389.15029
392.65995
395.71651
398.3996
400.77422
42.434142
42.575268
42.996122
43.415226
44.00905
45.274308
48.253309
55.969548
74.415835
104.07333
138.99356
174.63431
209.46975
241.39145
268.55658
291.47874
310.64681
326.63691
339.97765
351.1125
360.41455
368.20853
374.76957
380.32456
385.0581
389.11954
392.62974
395.68669
398.37005
400.74483
42.432928
42.573934
42.994547
43.41339
44.006583
45.269847
48.242718
55.939222
74.345383
103.97909
138.89991
174.55256
209.39697
241.32407
268.49434
291.42193
310.59518
326.58982
339.93439
351.07239
360.37695
368.17294
374.73556
380.2918
385.02629
389.08847
392.59922
395.65655
398.34018
400.71512
42.431715
42.5726
42.992969
43.411551
44.00411
45.265377
48.232108
55.908868
74.274778
103.88453
138.80594
174.47047
209.32383
241.2563
268.4317
291.36472
310.54315
326.54234
339.89075
351.0319
360.33899
368.13699
374.7012
380.25869
384.99415
389.05706
392.56836
395.6261
398.30999
400.68509
42.430503
42.571267
42.991392
43.40971
44.001631
45.260896
48.22148
55.878482
74.204025
103.78966
138.71163
174.38805
209.25035
241.18816
268.36868
291.30714
310.49076
326.49452
339.84679
350.99109
360.30072
368.10073
374.66654
380.22527
384.9617
389.02535
392.5372
395.59533
398.27949
400.65475
42.429292
42.569934
42.989814
43.407869
43.999147
45.256406
48.210856
55.848069
74.133121
103.69446
138.617
174.30529
209.1765
241.11962
268.30526
291.24915
310.43796
326.4463
339.80244
350.94992
360.26209
368.06413
374.63153
380.19152
384.92892
388.99332
392.50572
395.56425
398.24868
400.62411
42.428083
42.568602
42.988234
43.406028
43.996658
45.251906
48.200217
55.817627
74.062074
103.59896
138.52205
174.22222
209.10229
241.0507
268.24144
291.19078
310.38479
326.39772
339.75773
350.9084
360.22312
368.02719
374.5962
380.15745
384.89583
388.96097
392.47393
395.53286
398.21756
400.59315
42.426875
42.567271
42.986653
43.404182
43.994163
45.2474
48.189561
55.787158
73.990881
103.50314
138.42677
174.13883
209.02772
240.98138
268.17723
291.132
310.33123
326.34876
339.71265
350.86651
360.18379
367.9899
374.56052
380.12304
384.8624
388.9283
392.44182
395.50114
398.18612
400.56188
42.425668
42.56594
42.98507
43.402334
43.991663
45.242895
48.178888
55.756665
73.919547
103.40701
138.33117
174.0551
208.95281
240.9117
268.11264
291.07286
310.27732
326.29946
339.66726
350.82431
360.14416
367.95231
374.52455
380.08833
384.82867
388.89532
392.4094
395.46913
398.15438
400.53031
42.424462
42.56461
42.983489
43.400483
43.989158
45.238379