/*--------------------------------*- C++ -*----------------------------------*\
| =========                 |                                                 |
| \\      /  F ield         | OpenFOAM: The Open Source CFD Toolbox           |
|  \\    /   O peration     | Version:  v2012                                 |
|   \\  /    A nd           | Website:  www.openfoam.com                      |
|    \\/     M anipulation  |                                                 |
\*---------------------------------------------------------------------------*/
FoamFile
{
    version     2.0;
    format      ascii;
    class       volVectorField;
    location    "250";
    object      U;
}
// * * * * * * * * * * * * * * * * * * * * * * * * * * * * * * * * * * * * * //

dimensions      [0 1 -1 0 0 0 0];


internalField   nonuniform List<vector> 
24000
(
(24.715777 0.0013544716 0)
(24.942219 0.0053703689 0)
(25.098002 0.0095101192 0)
(25.164911 0.012654468 0)
(25.255968 0.016453952 0)
(25.420224 0.020026834 0)
(25.70314 0.019653289 0)
(26.201931 0.0050573218 0)
(27.096146 -0.029203525 0)
(28.453146 -0.068836225 0)
(29.935347 -0.095164985 0)
(30.974232 -0.10716777 0)
(31.154486 -0.1108649 0)
(30.188082 -0.10700196 0)
(28.220967 -0.098684824 0)
(25.582098 -0.086676205 0)
(22.620907 -0.073576639 0)
(19.59847 -0.060621399 0)
(16.68583 -0.048750765 0)
(13.986732 -0.0381938 0)
(11.556113 -0.029033293 0)
(9.4109557 -0.02129032 0)
(7.5442812 -0.014964175 0)
(5.9362007 -0.010006927 0)
(4.5609578 -0.0063008767 0)
(3.3911838 -0.0036711392 0)
(2.4003347 -0.0019150287 0)
(1.5639408 -0.00083004296 0)
(0.86011043 -0.00025197125 0)
(0.26959777 -1.1146518e-05 0)
(24.711597 0.0010950905 0)
(24.938906 0.0039156735 0)
(25.096886 0.0056901164 0)
(25.167469 0.0057892864 0)
(25.26393 0.0051255116 0)
(25.435508 0.0028929483 0)
(25.728247 -0.0017838674 0)
(26.239063 -0.0093394645 0)
(27.141169 -0.016874647 0)
(28.503772 -0.022783547 0)
(29.993019 -0.028810377 0)
(31.044671 -0.033346649 0)
(31.248472 -0.036412667 0)
(30.313232 -0.03742192 0)
(28.379595 -0.037252884 0)
(25.774008 -0.035732267 0)
(22.847006 -0.033249803 0)
(19.860827 -0.029816597 0)
(16.985779 -0.02561496 0)
(14.321491 -0.021001644 0)
(11.916402 -0.0164083 0)
(9.7814061 -0.012206446 0)
(7.9064572 -0.0086304241 0)
(6.272254 -0.005773629 0)
(4.8563493 -0.0036216006 0)
(3.6359615 -0.0020932532 0)
(2.5892101 -0.0010767024 0)
(1.6956539 -0.0004551499 0)
(0.93651147 -0.00013178905 0)
(0.2947227 -3.1508418e-06 0)
(24.710473 0.00088994333 0)
(24.937831 0.0030150883 0)
(25.095048 0.0037503804 0)
(25.163964 0.0030093307 0)
(25.257439 0.0016832319 0)
(25.42397 -0.00072118477 0)
(25.708592 -0.0039114869 0)
(26.207174 -0.0062790923 0)
(27.095572 -0.0061989466 0)
(28.448047 -0.0058690399 0)
(29.932471 -0.0067203247 0)
(30.984457 -0.0063269123 0)
(31.192584 -0.0054389422 0)
(30.263686 -0.0032971602 0)
(28.335734 -0.00061995929 0)
(25.732049 0.0022682135 0)
(22.802016 0.0047444725 0)
(19.806091 0.0063880968 0)
(16.914821 0.0070592185 0)
(14.230523 0.0068401537 0)
(11.806293 0.0059969925 0)
(9.6577383 0.0048416088 0)
(7.7776387 0.0036299842 0)
(6.1472303 0.0025360651 0)
(4.7428742 0.0016460704 0)
(3.5397234 0.0009762981 0)
(2.5136651 0.00051208623 0)
(1.6422764 0.00022063238 0)
(0.90522009 6.5219585e-05 0)
(0.2843267 1.8412952e-06 0)
(24.708247 0.00067320564 0)
(24.935556 0.0020977821 0)
(25.092417 0.0021130833 0)
(25.160685 0.00091501194 0)
(25.253199 -0.00065615907 0)
(25.418339 -0.002790413 0)
(25.70093 -0.0046026894 0)
(26.197144 -0.0047837743 0)
(27.084145 -0.0025672042 0)
(28.436888 -0.00045279992 0)
(29.922876 -0.00023622469 0)
(30.978021 0.00016235225 0)
(31.190492 -0.00044536798 0)
(30.266507 -0.00061817122 0)
(28.343694 -0.0010848578 0)
(25.744921 -0.0013870425 0)
(22.817909 -0.0016330879 0)
(19.824666 -0.0018351846 0)
(16.936921 -0.0019166655 0)
(14.25718 -0.0018420561 0)
(11.837625 -0.0016284788 0)
(9.6925461 -0.0013304906 0)
(7.8137876 -0.0010093917 0)
(6.1823046 -0.00071220463 0)
(4.7747253 -0.00046523855 0)
(3.5667612 -0.00027769778 0)
(2.5349204 -0.00014716736 0)
(1.6573298 -6.4082397e-05 0)
(0.91407635 -1.9004981e-05 0)
(0.28728489 -6.5020108e-07 0)
(24.705832 0.00045954809 0)
(24.932933 0.0013737673 0)
(25.089349 0.00097873515 0)
(25.156979 -0.00036004536 0)
(25.248666 -0.001878988 0)
(25.412709 -0.0036304041 0)
(25.693827 -0.0046538118 0)
(26.188368 -0.0040413207 0)
(27.073604 -0.0010514112 0)
(28.425367 0.0020103208 0)
(29.91048 0.0028882989 0)
(30.965395 0.0035839021 0)
(31.17806 0.0034022057 0)
(30.254844 0.0030350169 0)
(28.333108 0.0026467478 0)
(25.735344 0.0022384323 0)
(22.80906 0.0018956592 0)
(19.816091 0.0015935777 0)
(16.928096 0.0013198082 0)
(14.247714 0.0010631652 0)
(11.827448 0.00082485288 0)
(9.6819461 0.0006120441 0)
(7.8032739 0.00043234164 0)
(6.1724355 0.00028906504 0)
(4.7659796 0.00018106932 0)
(3.5594739 0.00010482234 0)
(2.5292739 5.412817e-05 0)
(1.6533762 2.303575e-05 0)
(0.91177188 6.7588475e-06 0)
(0.28652188 2.5744328e-07 0)
(24.703139 0.00027748098 0)
(24.929995 0.00081016137 0)
(25.086067 0.0001713694 0)
(25.153269 -0.0011997938 0)
(25.24446 -0.0026340334 0)
(25.407834 -0.0041357087 0)
(25.687987 -0.0047931286 0)
(26.181251 -0.0038982624 0)
(27.06498 -0.00058845008 0)
(28.416095 0.0029139757 0)
(29.900903 0.0039936164 0)
(30.955742 0.004767149 0)
(31.168373 0.0044824143 0)
(30.245385 0.0039742334 0)
(28.324243 0.003277365 0)
(25.727272 0.0025547662 0)
(22.801865 0.0019203523 0)
(19.80982 0.0013892008 0)
(16.922797 0.00097148921 0)
(14.243425 0.00065801432 0)
(11.824153 0.00043263514 0)
(9.679553 0.00027636059 0)
(7.8016333 0.00017120121 0)
(6.1713774 0.00010233589 0)
(4.7653432 5.8395088e-05 0)
(3.5591243 3.1199271e-05 0)
(2.5291067 1.5058679e-05 0)
(1.6533155 6.069819e-06 0)
(0.91176344 1.7039417e-06 0)
(0.28652788 6.0257568e-08 0)
(24.700248 0.00012977616 0)
(24.926856 0.00038342648 0)
(25.082659 -0.00040303581 0)
(25.149556 -0.0017695503 0)
(25.240398 -0.0031371917 0)
(25.403249 -0.0044949533 0)
(25.682543 -0.0049870043 0)
(26.174539 -0.0039550551 0)
(27.056693 -0.00051050524 0)
(28.407189 0.0031689834 0)
(29.891591 0.0044020801 0)
(30.946094 0.0052349491 0)
(31.158324 0.0050055695 0)
(30.235063 0.0044662484 0)
(28.314005 0.0037258292 0)
(25.71747 0.0029386866 0)
(22.792746 0.0022435866 0)
(19.801535 0.0016596964 0)
(16.91541 0.0011965806 0)
(14.236936 0.00084213033 0)
(11.81853 0.00057850786 0)
(9.6747475 0.00038697605 0)
(7.797597 0.00025094644 0)
(6.1680608 0.00015661122 0)
(4.7626946 9.2976226e-05 0)
(3.5570887 5.1486532e-05 0)
(2.5276259 2.5659387e-05 0)
(1.6523293 1.0653196e-05 0)
(0.9112118 3.0824534e-06 0)
(0.28635238 1.0245181e-07 0)
(24.697201 1.3295795e-05 0)
(24.923575 6.053663e-05 0)
(25.079178 -0.00082131902 0)
(25.145854 -0.002178106 0)
(25.236433 -0.0035071485 0)
(25.39883 -0.0047877798 0)
(25.677307 -0.0052086295 0)
(26.168037 -0.0040965047 0)
(27.048641 -0.00060505093 0)
(28.398526 0.0031208871 0)
(29.882522 0.0044704402 0)
(30.936652 0.0053378266 0)
(31.148396 0.0051433593 0)
(30.224729 0.0046024488 0)
(28.30363 0.0038445625 0)
(25.707444 0.0030286021 0)
(22.783371 0.0023038379 0)
(19.793014 0.0016941113 0)
(16.907851 0.0012114809 0)
(14.230374 0.00084431221 0)
(11.812945 0.00057381405 0)
(9.670083 0.00037979769 0)
(7.7937754 0.00024383604 0)
(6.1649972 0.00015084776 0)
(4.7603036 8.8906305e-05 0)
(3.5552879 4.8972004e-05 0)
(2.5263383 2.4323491e-05 0)
(1.6514841 1.0058162e-05 0)
(0.91074464 2.893776e-06 0)
(0.28620546 9.434906e-08 0)
(24.694036 -7.7741016e-05 0)
(24.920192 -0.00018553126 0)
(25.075646 -0.001133802 0)
(25.142156 -0.0024846011 0)
(25.232513 -0.0037964941 0)
(25.394487 -0.0050363336 0)
(25.672158 -0.0054278265 0)
(26.161621 -0.0042623333 0)
(27.040685 -0.00076269572 0)
(28.389918 0.002955539 0)
(29.873491 0.0044040761 0)
(30.927222 0.0052953987 0)
(31.138441 0.0051396 0)
(30.214315 0.0046108952 0)
(28.293121 0.003861407 0)
(25.697245 0.0030449958 0)
(22.773804 0.0023177299 0)
(19.784301 0.0017045101 0)
(16.900109 0.0012188103 0)
(14.223644 0.00084917999 0)
(11.807208 0.00057695528 0)
(9.6652821 0.00038157779 0)
(7.7898338 0.00024476157 0)
(6.1618308 0.00015119807 0)
(4.7578273 8.8931146e-05 0)
(3.5534192 4.886982e-05 0)
(2.5249995 2.4182737e-05 0)
(1.6506033 9.9797698e-06 0)
(0.91025665 2.8800165e-06 0)
(0.2860515 9.3886308e-08 0)
(24.690778 -0.00014911657 0)
(24.916732 -0.0003754637 0)
(25.072075 -0.0013739364 0)
(25.138452 -0.0027234151 0)
(25.228612 -0.0040312779 0)
(25.390178 -0.0052495976 0)
(25.667052 -0.0056306528 0)
(26.155247 -0.0044287909 0)
(27.032781 -0.00093850203 0)
(28.381316 0.002753146 0)
(29.864459 0.0042837522 0)
(30.917784 0.0051914385 0)
(31.128475 0.005069548 0)
(30.20389 0.0045555975 0)
(28.282599 0.0038207965 0)
(25.687032 0.003012692 0)
(22.764228 0.0022918184 0)
(19.775587 0.0016835644 0)
(16.892379 0.0012020516 0)
(14.216938 0.00083610252 0)
(11.801507 0.00056705518 0)
(9.6605245 0.00037449194 0)
(7.7859391 0.00023990051 0)
(6.1587107 0.00014807781 0)
(4.755393 8.7064697e-05 0)
(3.5515859 4.780619e-05 0)
(2.5236881 2.3661438e-05 0)
(1.6497416 9.7684134e-06 0)
(0.90977945 2.8177043e-06 0)
(0.28590098 9.0110594e-08 0)
(24.687449 -0.00020581456 0)
(24.913213 -0.00052488016 0)
(25.068473 -0.0015633699 0)
(25.134738 -0.0029149907 0)
(25.224714 -0.0042256096 0)
(25.385881 -0.0054324283 0)
(25.661964 -0.0058124124 0)
(26.148895 -0.0045853574 0)
(27.024907 -0.0011110126 0)
(28.372694 0.0025502333 0)
(29.855401 0.004149888 0)
(30.908322 0.0050684884 0)
(31.118493 0.0049773422 0)
(30.193464 0.0044779252 0)
(28.272092 0.0037602958 0)
(25.67685 0.0029646976 0)
(22.754694 0.0022546938 0)
(19.766925 0.0016553333 0)
(16.884708 0.0011811222 0)
(14.210294 0.00082109406 0)
(11.795866 0.00055667201 0)
(9.6558232 0.00036754297 0)
(7.7820947 0.00023546486 0)
(6.1556335 0.00014537418 0)
(4.7529939 8.5520545e-05 0)
(3.5497799 4.7020656e-05 0)
(2.5223966 2.3307003e-05 0)
(1.6488929 9.6370147e-06 0)
(0.90930942 2.7814567e-06 0)
(0.28575264 8.7778859e-08 0)
(24.684062 -0.00025148167 0)
(24.909649 -0.0006452074 0)
(25.064842 -0.0017165044 0)
(25.131009 -0.0030721431 0)
(25.220811 -0.0043885453 0)
(25.381587 -0.0055889173 0)
(25.656887 -0.0059725768 0)
(26.142556 -0.0047282527 0)
(27.017055 -0.0012725345 0)
(28.364046 0.0023598191 0)
(29.846314 0.0040187914 0)
(30.898834 0.0049440382 0)
(31.108498 0.0048800194 0)
(30.183048 0.0043939074 0)
(28.26162 0.0036929779 0)
(25.666723 0.0029104759 0)
(22.745232 0.0022121633 0)
(19.758345 0.0016227019 0)
(16.877124 0.0011567015 0)
(14.203738 0.00080331589 0)
(11.79031 0.00054408025 0)
(9.6512006 0.00035897901 0)
(7.7783202 0.00022984033 0)
(6.152616 0.00014186443 0)
(4.7506436 8.3459918e-05 0)
(3.548012 4.58952e-05 0)
(2.5211328 2.276689e-05 0)
(1.6480627 9.4163151e-06 0)
(0.90884957 2.719574e-06 0)
(0.28560748 8.536765e-08 0)
(24.68063 -0.0002888265 0)
(24.906046 -0.00074405436 0)
(25.061188 -0.0018430638 0)
(25.127266 -0.0032034472 0)
(25.2169 -0.0045266741 0)
(25.377292 -0.0057229546 0)
(25.651815 -0.0061126337 0)
(26.136228 -0.0048573068 0)
(27.00922 -0.0014212248 0)
(28.355368 0.002186096 0)
(29.837199 0.0038969046 0)
(30.889322 0.0048267634 0)
(31.09849 0.0047869171 0)
(30.172643 0.004312736 0)
(28.251187 0.0036279747 0)
(25.656659 0.0028584326 0)
(22.735849 0.0021719708 0)
(19.749856 0.0015922995 0)
(16.869634 0.0011343126 0)
(14.197273 0.00078719757 0)
(11.78484 0.00053280565 0)
(9.6466554 0.00035119283 0)
(7.7746127 0.00022463773 0)
(6.1496545 0.00013847029 0)
(4.7483383 8.1328e-05 0)
(3.5462786 4.4660895e-05 0)
(2.5198942 2.2103714e-05 0)
(1.647249 9.1244707e-06 0)
(0.90839894 2.6306609e-06 0)
(0.28546521 7.7682444e-08 0)
(24.677159 -0.0003198793 0)
(24.902411 -0.00082688534 0)
(25.057512 -0.001949828 0)
(25.123508 -0.0033149149 0)
(25.212981 -0.0046449787 0)
(25.372994 -0.0058381162 0)
(25.646748 -0.0062350596 0)
(26.129909 -0.0049736418 0)
(27.001404 -0.0015571541 0)
(28.346661 0.0020291344 0)
(29.828057 0.003785453 0)
(30.879786 0.004718403 0)
(31.08847 0.0046998612 0)
(30.162249 0.0042357772 0)
(28.240791 0.0035655201 0)
(25.646653 0.0028075548 0)
(22.726542 0.0021318286 0)
(19.741451 0.0015613877 0)
(16.862234 0.0011111126 0)
(14.190899 0.00077026394 0)
(11.779455 0.00052077594 0)
(9.6421879 0.00034300747 0)
(7.7709735 0.00021925837 0)
(6.1467507 0.00013512009 0)
(4.74608 7.9366167e-05 0)
(3.5445817 4.3561202e-05 0)
(2.5186821 2.1564245e-05 0)
(1.6464531 8.9083037e-06 0)
(0.90795814 2.5735131e-06 0)
(0.28532604 7.7356031e-08 0)
(24.673656 -0.00034621444 0)
(24.898749 -0.00089770105 0)
(25.053817 -0.0020415245 0)
(25.119737 -0.0034108946 0)
(25.209052 -0.0047473174 0)
(25.368693 -0.0059376916 0)
(25.641685 -0.0063425634 0)
(26.123599 -0.0050785358 0)
(26.993606 -0.0016812647 0)
(28.337923 0.0018870654 0)
(29.818891 0.0036841575 0)
(30.870229 0.0046197613 0)
(31.078437 0.0046207856 0)
(30.151862 0.0041658148 0)
(28.230426 0.0035089517 0)
(25.636699 0.0027618185 0)
(22.717303 0.0020961928 0)
(19.733125 0.0015342975 0)
(16.854916 0.0010911065 0)
(14.184606 0.00075596425 0)
(11.774147 0.00051089529 0)
(9.6377906 0.0003363837 0)
(7.767396 0.00021500696 0)
(6.1438993 0.00013250931 0)
(4.7438644 7.7858101e-05 0)
(3.5429182 4.2781168e-05 0)
(2.5174945 2.1206986e-05 0)
(1.6456735 8.7717631e-06 0)
(0.90752648 2.5311987e-06 0)
(0.28518975 7.3006281e-08 0)
(24.670126 -0.00036897571 0)
(24.895064 -0.00095942912 0)
(25.050104 -0.0021216115 0)
(25.115953 -0.0034946728 0)
(25.205114 -0.0048367984 0)
(25.364387 -0.006024781 0)
(25.636626 -0.0064381067 0)
(26.117299 -0.0051738559 0)
(26.985828 -0.0017948983 0)
(28.329156 0.0017589293 0)
(29.809704 0.0035938004 0)
(30.860652 0.0045316189 0)
(31.068392 0.0045505787 0)
(30.141481 0.0041037172 0)
(28.220087 0.0034588633 0)
(25.626791 0.0027212407 0)
(22.708122 0.0020643681 0)
(19.724866 0.0015099336 0)
(16.847669 0.0010729213 0)
(14.178384 0.0007427521 0)
(11.768908 0.00050153954 0)
(9.6334568 0.00033001991 0)
(7.763875 0.00021082096 0)
(6.1410965 0.00012989226 0)
(4.7416888 7.6319864e-05 0)
(3.5412861 4.1941166e-05 0)
(2.5163301 2.0802688e-05 0)
(1.6449095 8.6060259e-06 0)
(0.90710353 2.4875129e-06 0)
(0.28505622 7.2634089e-08 0)
(24.666572 -0.00038898832 0)
(24.891358 -0.0010142034 0)
(25.046377 -0.00219271 0)
(25.112157 -0.003568885 0)
(25.201168 -0.0049159549 0)
(25.360079 -0.0061019353 0)
(25.63157 -0.0065239412 0)
(26.111008 -0.0052609762 0)
(26.97807 -0.0018996628 0)
(28.32036 0.0016430625 0)
(29.800498 0.0035140949 0)
(30.851058 0.0044540131 0)
(31.058335 0.0044902625 0)
(30.131102 0.0040510934 0)
(28.20977 0.0034173745 0)
(25.61692 0.0026885071 0)
(22.698991 0.0020395949 0)
(19.716664 0.0014915532 0)
(16.840482 0.0010596299 0)
(14.172221 0.00073331001 0)
(11.763723 0.00049500442 0)
(9.6291711 0.00032549858 0)
(7.7603956 0.00020778675 0)
(6.1383283 0.00012788951 0)
(4.7395412 7.5041388e-05 0)
(3.5396756 4.1200192e-05 0)
(2.5151815 2.0401628e-05 0)
(1.644156 8.4274567e-06 0)
(0.90668645 2.4284861e-06 0)
(0.28492455 6.5807564e-08 0)
(24.662997 -0.00040688754 0)
(24.887632 -0.0010636501 0)
(25.042635 -0.0022567946 0)
(25.108351 -0.0036355475 0)
(25.197214 -0.0049868651 0)
(25.355767 -0.0061710741 0)
(25.626519 -0.0066014053 0)
(26.104727 -0.0053409312 0)
(26.970334 -0.0019975975 0)
(28.311533 0.0015363048 0)
(29.791277 0.003442286 0)
(30.841447 0.0043840724 0)
(31.048265 0.0044365296 0)
(30.120724 0.0040040879 0)
(28.199469 0.0033800473 0)
(25.607079 0.0026585554 0)
(22.6899 0.002016323 0)
(19.708507 0.0014738856 0)
(16.833342 0.0010465115 0)
(14.166104 0.00072380896 0)
(11.758583 0.00048827364 0)
(9.624926 0.00032093522 0)
(7.7569518 0.0002047781 0)
(6.1355903 0.00012600271 0)
(4.7374182 7.3920909e-05 0)
(3.5380842 4.0535895e-05 0)
(2.5140469 2.0055359e-05 0)
(1.6434118 8.2836307e-06 0)
(0.90627456 2.3931215e-06 0)
(0.28479451 6.6227463e-08 0)
(24.659403 -0.00042317667 0)
(24.88389 -0.0011090258 0)
(25.03888 -0.0023153881 0)
(25.104534 -0.0036961974 0)
(25.193252 -0.005051228 0)
(25.351453 -0.0062338136 0)
(25.621471 -0.0066719993 0)
(26.098454 -0.0054153412 0)
(26.962617 -0.0020899408 0)
(28.302682 0.0014376972 0)
(29.782042 0.0033778335 0)
(30.831821 0.0043213217 0)
(31.038181 0.0043888638 0)
(30.110342 0.00396265 0)
(28.189178 0.0033474585 0)
(25.597261 0.0026327885 0)
(22.68084 0.0019967088 0)
(19.700387 0.0014593307 0)
(16.826241 0.00103603 0)
(14.160026 0.00071652069 0)
(11.753478 0.00048339397 0)
(9.6207132 0.00031777144 0)
(7.753536 0.00020283747 0)
(6.1328758 0.00012488056 0)
(4.7353142 7.3328091e-05 0)
(3.5365076 4.029359e-05 0)
(2.5129231 1.9984451e-05 0)
(1.6426748 8.2694425e-06 0)
(0.90586666 2.3856255e-06 0)
(0.28466573 6.34537e-08 0)
(24.655791 -0.00043821635 0)
(24.880132 -0.0011513118 0)
(25.035113 -0.002369661 0)
(25.100707 -0.0037519971 0)
(25.189283 -0.0051104049 0)
(25.347135 -0.0062913041 0)
(25.616426 -0.0067370546 0)
(26.092192 -0.0054861309 0)
(26.954911 -0.0021778735 0)
(28.293825 0.0013464297 0)
(29.772796 0.0033194542 0)
(30.82218 0.0042645771 0)
(31.028085 0.0043459732 0)
(30.099955 0.003925559 0)
(28.178894 0.0033181611 0)
(25.58746 0.002609399 0)
(22.671807 0.0019785353 0)
(19.692299 0.0014454961 0)
(16.819175 0.001025722 0)
(14.153984 0.00070902412 0)
(11.748408 0.00047805513 0)
(9.6165321 0.00031411396 0)
(7.7501486 0.00020039356 0)
(6.1301858 0.00012331376 0)
(4.7332305 7.237071e-05 0)
(3.5349468 3.9720974e-05 0)
(2.511811 1.9677953e-05 0)
(1.6419456 8.1350736e-06 0)
(0.90546316 2.3511151e-06 0)
(0.28453834 6.2867698e-08 0)
(24.652163 -0.00045229145 0)
(24.87636 -0.0011912301 0)
(25.031335 -0.0024204958 0)
(25.096872 -0.0038039585 0)
(25.185307 -0.0051654768 0)
(25.342814 -0.0063445478 0)
(25.611385 -0.0067978366 0)
(26.085938 -0.0055546498 0)
(26.947213 -0.0022617994 0)
(28.284966 0.0012618415 0)
(29.76354 0.0032655792 0)
(30.812526 0.004213554 0)
(31.017975 0.0043082923 0)
(30.089561 0.0038937671 0)
(28.168613 0.0032938081 0)
(25.577674 0.0025906972 0)
(22.662796 0.0019647495 0)
(19.684238 0.0014355111 0)
(16.812139 0.0010186939 0)
(14.14797 0.00070416861 0)
(11.743364 0.00047480914 0)
(9.6123748 0.000311936 0)
(7.7467816 0.00019899794 0)
(6.1275127 0.00012244555 0)
(4.7311602 7.1859586e-05 0)
(3.5333965 3.9486875e-05 0)
(2.5107064 1.958422e-05 0)
(1.6412215 8.101324e-06 0)
(0.90506251 2.3332961e-06 0)
(0.28441185 5.8283911e-08 0)
(24.64852 -0.0004656382 0)
(24.872573 -0.0012293213 0)
(25.027547 -0.0024685941 0)
(25.093027 -0.003852944 0)
(25.181324 -0.005217213 0)
(25.33849 -0.0063946401 0)
(25.606348 -0.0068556124 0)
(26.079694 -0.0056216171 0)
(26.939523 -0.0023416957 0)
(28.276108 0.0011838813 0)
(29.754276 0.0032150553 0)
(30.802858 0.004167039 0)
(31.00785 0.0042738651 0)
(30.079158 0.0038647414 0)
(28.158332 0.003271208 0)
(25.567894 0.0025727847 0)
(22.653799 0.0019508776 0)
(19.676196 0.0014249097 0)
(16.805123 0.0010107126 0)
(14.141978 0.00069828028 0)
(11.738343 0.00047053086 0)
(9.6082389 0.00030894949 0)
(7.7434341 0.0001969476 0)
(6.1248566 0.00012108608 0)
(4.7291042 7.0990314e-05 0)
(3.5318575 3.8908298e-05 0)
(2.5096103 1.9243615e-05 0)
(1.6405031 7.9470965e-06 0)
(0.90466498 2.2948993e-06 0)
(0.28428635 5.8037475e-08 0)
(24.644862 -0.00047843462 0)
(24.868774 -0.0012660061 0)
(25.023748 -0.0025144814 0)
(25.089174 -0.0038995699 0)
(25.177335 -0.0052662733 0)
(25.334163 -0.0064423338 0)
(25.601314 -0.0069107126 0)
(26.073459 -0.0056869537 0)
(26.931838 -0.0024184686 0)
(28.267249 0.001111219 0)
(29.745004 0.0031668087 0)
(30.793176 0.0041239105 0)
(30.997709 0.0042421908 0)
(30.068743 0.0038385802 0)
(28.148047 0.0032511735 0)
(25.558119 0.0025572746 0)
(22.644811 0.0019392794 0)
(19.668168 0.0014164235 0)
(16.798124 0.0010046805 0)
(14.136004 0.00069414296 0)
(11.733338 0.00046780896 0)
(9.604118 0.00030722059 0)
(7.7400999 0.00019593094 0)
(6.1222119 0.00012054591 0)
(4.7270576 7.0752162e-05 0)
(3.5303258 3.8877563e-05 0)
(2.5085196 1.9289211e-05 0)
(1.6397883 7.9837574e-06 0)
(0.90426953 2.3019986e-06 0)
(0.28416151 5.6239278e-08 0)
(24.64119 -0.0004908075 0)
(24.864962 -0.0013015782 0)
(25.019939 -0.00255857 0)
(25.085314 -0.0039443482 0)
(25.173339 -0.0053132978 0)
(25.329833 -0.0064881814 0)
(25.596284 -0.0069634166 0)
(26.067232 -0.0057508473 0)
(26.924161 -0.0024933898 0)
(28.258393 0.0010424085 0)
(29.735725 0.0031203946 0)
(30.783483 0.0040832033 0)
(30.987554 0.0042124191 0)
(30.058316 0.0038141222 0)
(28.137756 0.0032323409 0)
(25.548345 0.0025424611 0)
(22.635832 0.0019278134 0)
(19.660152 0.0014076746 0)
(16.791139 0.00099810176 0)
(14.130045 0.00068929623 0)
(11.72835 0.00046429195 0)
(9.6000134 0.0003047591 0)
(7.7367811 0.0001942345 0)
(6.119581 0.00011941196 0)
(4.7250228 7.0020654e-05 0)
(3.5288037 3.8397823e-05 0)
(2.507436 1.9007264e-05 0)
(1.6390783 7.8531604e-06 0)
(0.90387678 2.2687781e-06 0)
(0.28403752 5.5677837e-08 0)
(24.637505 -0.00050284263 0)
(24.861138 -0.001336234 0)
(25.016121 -0.0026012717 0)
(25.081445 -0.0039877688 0)
(25.169337 -0.0053587498 0)
(25.3255 -0.0065326357 0)
(25.591256 -0.007014404 0)
(26.061016 -0.005813779 0)
(26.916492 -0.0025669116 0)
(28.249539 0.00097675932 0)
(29.72644 0.0030761111 0)
(30.773777 0.0040456203 0)
(30.977383 0.0041856975 0)
(30.047876 0.0037928388 0)
(28.127459 0.0032166792 0)
(25.538572 0.0025309025 0)
(22.626858 0.0019195896 0)
(19.652147 0.001401925 0)
(16.784168 0.00099421956 0)
(14.124101 0.00068673345 0)
(11.723375 0.00046269115 0)
(9.5959207 0.00030375558 0)
(7.7334723 0.00019366596 0)
(6.1169582 0.00011912195 0)
(4.7229944 6.9904533e-05 0)
(3.5272865 3.8430825e-05 0)
(2.5063561 1.9078605e-05 0)
(1.6383708 7.8987409e-06 0)
(0.90348541 2.2735294e-06 0)
(0.28391397 5.2487095e-08 0)
(24.633807 -0.00051461306 0)
(24.857302 -0.0013701364 0)
(25.012294 -0.0026429311 0)
(25.077568 -0.0040302616 0)
(25.165329 -0.0054030132 0)
(25.321164 -0.0065760607 0)
(25.586232 -0.0070641169 0)
(26.054808 -0.0058755924 0)
(26.90883 -0.0026387632 0)
(28.240687 0.00091323551 0)
(29.717151 0.0030328523 0)
(30.764061 0.0040097946 0)
(30.967198 0.0041598486 0)
(30.037422 0.0037720792 0)
(28.117152 0.0032008795 0)
(25.528795 0.0025185882 0)
(22.617887 0.0019100303 0)
(19.644147 0.0013945064 0)
(16.777206 0.00098849461 0)
(14.118168 0.00068238972 0)
(11.718413 0.00045943446 0)
(9.5918407 0.00030140654 0)
(7.7301757 0.00019198511 0)
(6.1143465 0.0001179458 0)
(4.7209754 6.910214e-05 0)
(3.5257768 3.7847331e-05 0)
(2.5052817 1.8707505e-05 0)
(1.637667 7.7230614e-06 0)
(0.90309612 2.2295638e-06 0)
(0.28379107 5.2171341e-08 0)
(24.630097 -0.00052616654 0)
(24.853455 -0.0014034196 0)
(25.008458 -0.0026838259 0)
(25.073685 -0.0040721334 0)
(25.161315 -0.0054464607 0)
(25.316825 -0.0066189188 0)
(25.581211 -0.0071129273 0)
(26.048609 -0.0059364598 0)
(26.901177 -0.0027087169 0)
(28.231837 0.00085262239 0)
(29.707856 0.0029914283 0)
(30.754332 0.0039766856 0)
(30.956997 0.0041365055 0)
(30.026954 0.0037540437 0)
(28.106835 0.0031877663 0)
(25.519012 0.0025089249 0)
(22.608914 0.0019030792 0)
(19.63615 0.001389555 0)
(16.770249 0.00098504511 0)
(14.112242 0.0006800646 0)
(11.713458 0.00045794527 0)
(9.5877683 0.00030050252 0)
(7.7268861 0.00019151196 0)
(6.1117411 0.00011776261 0)
(4.7189617 6.9094632e-05 0)
(3.5242714 3.7971432e-05 0)
(2.5042105 1.8847202e-05 0)
(1.6369654 7.802409e-06 0)
(0.90270805 2.248959e-06 0)
(0.28366856 5.1060813e-08 0)
(24.626374 -0.00053754012 0)
(24.849597 -0.0014362072 0)
(25.004613 -0.002724158 0)
(25.069793 -0.0041134836 0)
(25.157294 -0.0054892977 0)
(25.312482 -0.0066614641 0)
(25.576192 -0.0071608419 0)
(26.042419 -0.0059964824 0)
(26.893531 -0.0027776026 0)
(28.222989 0.00079442581 0)
(29.698555 0.0029519025 0)
(30.744593 0.0039457071 0)
(30.946779 0.0041153443 0)
(30.016468 0.0037381301 0)
(28.096505 0.0031763718 0)
(25.509221 0.0025005258 0)
(22.599935 0.0018968646 0)
(19.62815 0.0013849143 0)
(16.763292 0.00098153863 0)
(14.106317 0.00067741247 0)
(11.708507 0.00045592427 0)
(9.5837012 0.00029900322 0)
(7.7236029 0.00019039513 0)
(6.1091421 0.00011694474 0)
(4.7169541 6.8511466e-05 0)
(3.5227711 3.7528876e-05 0)
(2.5031434 1.8556635e-05 0)
(1.6362666 7.6619779e-06 0)
(0.90232159 2.2139429e-06 0)
(0.28354656 5.0784931e-08 0)
(24.622638 -0.00054876101 0)
(24.845727 -0.0014685782 0)
(25.00076 -0.0027640383 0)
(25.065894 -0.0041543574 0)
(25.153266 -0.0055315982 0)
(25.308136 -0.0067035034 0)
(25.571175 -0.0072077771 0)
(26.036238 -0.0060558802 0)
(26.885894 -0.0028459156 0)
(28.214144 0.00073731057 0)
(29.689251 0.0029132604 0)
(30.734843 0.0039159342 0)
(30.936546 0.0040953342 0)
(30.005967 0.003723841 0)
(28.086163 0.0031669184 0)
(25.499421 0.0024944567 0)
(22.590952 0.0018932601 0)
(19.620148 0.0013829491 0)
(16.756334 0.00098066074 0)
(14.100393 0.00067716524 0)
(11.703556 0.00045605454 0)
(9.5796337 0.00029927535 0)
(7.720319 0.00019074646 0)
(6.1065425 0.00011730936 0)
(4.7149459 6.884863e-05 0)
(3.5212705 3.7872688e-05 0)
(2.5020761 1.8821985e-05 0)
(1.6355677 7.7999446e-06 0)
(0.90193509 2.2438604e-06 0)
(0.28342454 4.7829853e-08 0)
(24.618891 -0.00055983797 0)
(24.841847 -0.0015006108 0)
(24.996898 -0.002803589 0)
(25.061988 -0.0041948932 0)
(25.149233 -0.005573476 0)
(25.303786 -0.0067450735 0)
(25.566161 -0.0072541623 0)
(26.030066 -0.0061153365 0)
(26.878266 -0.0029136397 0)
(28.205301 0.0006812142 0)
(29.679944 0.0028744893 0)
(30.725084 0.0038860989 0)
(30.9263 0.0040743912 0)
(29.995452 0.0037082274 0)
(28.075808 0.0031556048 0)
(25.489612 0.0024861302 0)
(22.581963 0.0018870329 0)
(19.612143 0.0013782248 0)
(16.749375 0.00097702497 0)
(14.094469 0.00067438141 0)
(11.698606 0.00045391382 0)
(9.575569 0.00029767482 0)
(7.7170383 0.00018953408 0)
(6.1039462 0.0001163942 0)
(4.7129408 6.8169607e-05 0)
(3.5197725 3.7324484e-05 0)
(2.5010108 1.8445173e-05 0)
(1.6348701 7.6145668e-06 0)
(0.90154934 2.1981863e-06 0)
(0.28330277 4.7951057e-08 0)
(24.615132 -0.00057083224 0)
(24.837956 -0.0015324338 0)
(24.993028 -0.0028429461 0)
(25.058074 -0.0042353338 0)
(25.145193 -0.0056151688 0)
(25.299434 -0.0067864598 0)
(25.561149 -0.0073003562 0)
(26.023904 -0.0061746514 0)
(26.870647 -0.0029805989 0)
(28.196463 0.0006260342 0)
(29.670635 0.0028361356 0)
(30.715316 0.0038572596 0)
(30.916039 0.0040544508 0)
(29.984922 0.0036937918 0)
(28.065441 0.0031455361 0)
(25.479795 0.002479203 0)
(22.572969 0.001882344 0)
(19.604135 0.0013751109 0)
(16.742415 0.00097502095 0)
(14.088545 0.00067315373 0)
(11.693658 0.00045323457 0)
(9.5715058 0.00029735567 0)
(7.7137591 0.00018947305 0)
(6.1013511 0.00011649639 0)
(4.7109367 6.8352783e-05 0)
(3.5182753 3.7576123e-05 0)
(2.499946 1.8662327e-05 0)
(1.634173 7.7295955e-06 0)
(0.90116379 2.2271353e-06 0)
(0.28318105 4.691963e-08 0)
(24.61136 -0.00058181683 0)
(24.834054 -0.001564155 0)
(24.989149 -0.0028821974 0)
(25.054153 -0.0042758602 0)
(25.141148 -0.0056568827 0)
(25.295078 -0.0068278336 0)
(25.55614 -0.0073466033 0)
(26.017751 -0.0062338583 0)
(26.863038 -0.0030468153 0)
(28.187628 0.00057180217 0)
(29.661323 0.0027989794 0)
(30.705538 0.0038301036 0)
(30.905763 0.0040359372 0)
(29.974375 0.0036807007 0)
(28.05506 0.0031364458 0)
(25.469966 0.0024728595 0)
(22.563967 0.0018778232 0)
(19.596122 0.0013718243 0)
(16.735452 0.00097256468 0)
(14.08262 0.00067129034 0)
(11.68871 0.00045178382 0)
(9.5674442 0.00029624653 0)
(7.7104827 0.00018860695 0)
(6.0987595 0.00011582274 0)
(4.708936 6.7840814e-05 0)
(3.516781 3.7153545e-05 0)
(2.4988836 1.8368022e-05 0)
(1.6334774 7.5840202e-06 0)
(0.90077919 2.1916151e-06 0)
(0.28305963 4.7282583e-08 0)
(24.607577 -0.00059284653 0)
(24.830142 -0.0015958523 0)
(24.985262 -0.0029214153 0)
(25.050225 -0.0043165059 0)
(25.137096 -0.0056985997 0)
(25.290718 -0.0068692133 0)
(25.551133 -0.0073928061 0)
(26.011606 -0.0062933025 0)
(26.855438 -0.0031125508 0)
(28.178796 0.00051907504 0)
(29.652008 0.0027627881 0)
(30.695751 0.0038043119 0)
(30.895472 0.0040187613 0)
(29.963811 0.0036692568 0)
(28.044665 0.0031293061 0)
(25.460128 0.0024688065 0)
(22.554958 0.0018759284 0)
(19.588104 0.0013713084 0)
(16.728485 0.0009729019 0)
(14.076691 0.00067204798 0)
(11.683758 0.00045273421 0)
(9.5633788 0.00029718165 0)
(7.7072025 0.00018948675 0)
(6.0961641 0.0001166029 0)
(4.7069322 6.8492498e-05 0)
(3.5152843 3.7733611e-05 0)
(2.4978194 1.8791651e-05 0)
(1.6327807 7.8015469e-06 0)
(0.90039388 2.2421864e-06 0)
(0.28293798 4.4317762e-08 0)
(24.603782 -0.00060394885 0)
(24.826219 -0.0016275752 0)
(24.981366 -0.0029606823 0)
(25.04629 -0.004357292 0)
(25.133037 -0.0057402448 0)
(25.286354 -0.0069105224 0)
(25.546129 -0.0074385837 0)
(26.00547 -0.0063525905 0)
(26.847847 -0.003178682 0)
(28.169967 0.00046573376 0)
(29.64269 0.0027247504 0)
(30.685955 0.0037767089 0)
(30.885167 0.0039996635 0)
(29.953232 0.0036554165 0)
(28.034256 0.0031193904 0)
(25.450279 0.0024615728 0)
(22.54594 0.001870558 0)
(19.58008 0.0013672506 0)
(16.721515 0.00096976484 0)
(14.070761 0.00066962065 0)
(11.678806 0.00045082448 0)
(9.559314 0.00029569821 0)
(7.7039234 0.00018830223 0)
(6.0935703 0.00011564791 0)
(4.7049298 6.7736951e-05 0)
(3.5137887 3.7088188e-05 0)
(2.496756 1.8329589e-05 0)
(1.6320845 7.5691745e-06 0)
(0.9000089 2.1846832e-06 0)
(0.28281643 4.4622802e-08 0)
(24.599976 -0.00061510879 0)
(24.822285 -0.0016593654 0)
(24.977462 -0.0030001283 0)
(25.042347 -0.0043983513 0)
(25.128973 -0.0057819695 0)
(25.281988 -0.0069521445 0)
(25.541128 -0.0074843295 0)
(25.999345 -0.0064118878 0)
(26.840267 -0.0032453513 0)
(28.161142 0.00041262566 0)
(29.633371 0.0026870125 0)
(30.676151 0.0037495196 0)
(30.874847 0.0039811954 0)
(29.942638 0.0036423067 0)
(28.023834 0.0031103972 0)
(25.440419 0.0024554667 0)
(22.536916 0.0018664956 0)
(19.572052 0.0013646341 0)
(16.714542 0.00096816581 0)
(14.06483 0.00066871652 0)
(11.673854 0.00045040202 0)
(9.5552487 0.00029558514 0)
(7.7006436 0.00018840795 0)
(6.0909756 0.00011589111 0)
(4.7029265 6.8037042e-05 0)
(3.5122925 3.7446218e-05 0)
(2.4956921 1.8625172e-05 0)
(1.6313879 7.7222648e-06 0)
(0.89962368 2.2242112e-06 0)
(0.28269481 4.4062802e-08 0)
(24.596158 -0.00062631139 0)
(24.81834 -0.001691272 0)
(24.97355 -0.0030398838 0)
(25.038397 -0.0044398239 0)
(25.124902 -0.0058241059 0)
(25.277618 -0.0069946366 0)