/*--------------------------------*- C++ -*----------------------------------*\
| =========                 |                                                 |
| \\      /  F ield         | OpenFOAM: The Open Source CFD Toolbox           |
|  \\    /   O peration     | Version:  v2012                                 |
|   \\  /    A nd           | Website:  www.openfoam.com                      |
|    \\/     M anipulation  |                                                 |
\*---------------------------------------------------------------------------*/
FoamFile
{
    version     2.0;
    format      ascii;
    class       volScalarField;
    location    "50";
    object      alphat;
}
// * * * * * * * * * * * * * * * * * * * * * * * * * * * * * * * * * * * * * //

dimensions      [1 -1 -1 0 0 0 0];


internalField   nonuniform List<scalar> 
24000
(
0.001701032
9.9541582e-05
0.00027490802
0.0011378972
0.0018048275
0.0012298909
0.00040618666
0.00010584974
0.0001070492
9.4951515e-05
5.2163486e-05
3.3950392e-05
2.7199004e-05
2.4213902e-05
2.1773946e-05
1.8942408e-05
1.5559954e-05
1.1711267e-05
7.6175993e-06
4.0136528e-06
1.8251288e-06
7.6256501e-07
2.7003136e-07
7.4109139e-08
1.6035135e-08
2.6714902e-09
3.340854e-10
4.2794948e-11
2.1389361e-11
2.1174475e-11
0.0017014916
9.8936401e-05
0.00027413006
0.0017159311
0.0018053235
0.001662295
0.0008639126
0.0001164737
0.00011772243
0.00010590315
5.5918253e-05
3.5218596e-05
2.7734867e-05
2.4667877e-05
2.2148527e-05
1.9266212e-05
1.5852348e-05
1.1972613e-05
7.8115919e-06
4.1053367e-06
1.8545393e-06
7.6709606e-07
2.6330671e-07
7.1729398e-08
1.5490254e-08
2.5867529e-09
3.2784339e-10
4.6070621e-11
2.5659329e-11
2.5532862e-11
0.0017014822
9.8871594e-05
0.00027615929
0.001767482
0.0018071037
0.0016660306
0.0007996682
0.00011097814
0.0001096242
9.7365676e-05
5.3245131e-05
3.4308743e-05
2.7304525e-05
2.4360742e-05
2.1913798e-05
1.9067508e-05
1.5681556e-05
1.1840189e-05
7.7302997e-06
4.0768087e-06
1.8518418e-06
7.7074771e-07
2.6941274e-07
7.362233e-08
1.5888262e-08
2.6454204e-09
3.3295059e-10
4.5284568e-11
2.4403998e-11
2.4250451e-11
0.0017014727
9.8776384e-05
0.00027995646
0.0018222407
0.0018089649
0.0016696061
0.00080351418
0.00011028416
0.00010848697
9.538489e-05
5.2619758e-05
3.4180157e-05
2.7286906e-05
2.4373212e-05
2.1936447e-05
1.9089766e-05
1.5696093e-05
1.1840625e-05
7.7143172e-06
4.0551854e-06
1.8378685e-06
7.6393118e-07
2.6618591e-07
7.2616679e-08
1.5649651e-08
2.6040818e-09
3.2795955e-10
4.489166e-11
2.4361634e-11
2.4214715e-11
0.001701457
9.8802829e-05
0.00028499925
0.0018906848
0.0018108084
0.0016732296
0.00078064262
0.00010968195
0.00010754916
9.3346294e-05
5.1916675e-05
3.3999273e-05
2.7220079e-05
2.433137e-05
2.1902347e-05
1.9056607e-05
1.5661255e-05
1.1804393e-05
7.6815208e-06
4.0325884e-06
1.8271065e-06
7.5982885e-07
2.6494684e-07
7.2272003e-08
1.5570234e-08
2.5899098e-09
3.2603955e-10
4.45685e-11
2.4152387e-11
2.4003984e-11
0.0017014322
9.8876485e-05
0.00029049654
0.0019043329
0.0018125855
0.0016766262
0.00076820689
0.00010997869
0.00010740128
9.1866593e-05
5.1356639e-05
3.3878601e-05
2.7192641e-05
2.4316452e-05
2.1889012e-05
1.9041737e-05
1.564352e-05
1.1783473e-05
7.6602644e-06
4.016195e-06
1.8185314e-06
7.5621838e-07
2.6364834e-07
7.1902245e-08
1.5486963e-08
2.5756093e-09
3.2422653e-10
4.4333831e-11
2.4033047e-11
2.3885464e-11
0.0017013966
9.8976436e-05
0.00029605601
0.0019048923
0.0018142753
0.0016797834
0.00076210074
0.00011086188
0.00010762345
9.0532506e-05
5.0805922e-05
3.3763565e-05
2.7174333e-05
2.4307487e-05
2.1879177e-05
1.9029579e-05
1.5628743e-05
1.1766422e-05
7.6434527e-06
4.0035248e-06
1.8119044e-06
7.5339952e-07
2.626554e-07
7.1625576e-08
1.5425896e-08
2.5652534e-09
3.2291482e-10
4.4157405e-11
2.3939266e-11
2.379258e-11
0.001701349
9.9084818e-05
0.00030144309
0.0019053747
0.0018158594
0.0016826848
0.00076189727
0.00011226098
0.00010812776
8.9286237e-05
5.0253399e-05
3.3649876e-05
2.7163805e-05
2.430512e-05
2.1874457e-05
1.9022e-05
1.5618561e-05
1.1754161e-05
7.6310594e-06
3.9939854e-06
1.8067837e-06
7.5114861e-07
2.6184084e-07
7.1399385e-08
1.5376643e-08
2.5570157e-09
3.2188595e-10
4.4024407e-11
2.387186e-11
2.3726414e-11
0.0017012896
9.9190987e-05
0.00030655023
0.0019057811
0.0018173254
0.0016853231
0.00076608429
0.00011408289
0.00010882588
8.8078615e-05
4.9690932e-05
3.353251e-05
2.715712e-05
2.4306832e-05
2.1873108e-05
1.9017561e-05
1.5611603e-05
1.1745322e-05
7.6218846e-06
3.9868138e-06
1.8028632e-06
7.4937705e-07
2.6118079e-07
7.1215093e-08
1.5336729e-08
2.5503967e-09
3.210683e-10
4.3923658e-11
2.3823897e-11
2.3679782e-11
0.0017012192
9.9288922e-05
0.00031133017
0.0019061142
0.0018186651
0.0016876951
0.00077359017
0.00011625754
0.00010965673
8.6893624e-05
4.9122496e-05
3.3411336e-05
2.7152516e-05
2.4311357e-05
2.1874331e-05
1.9015687e-05
1.5607361e-05
1.1739358e-05
7.6153678e-06
3.9815692e-06
1.7999422e-06
7.4802553e-07
2.6065869e-07
7.1067782e-08
1.5304884e-08
2.5451565e-09
3.2043195e-10
4.3852191e-11
2.3794178e-11
2.3651119e-11
0.0017011392
9.9375842e-05
0.00031578736
0.0019063823
0.001819882
0.0016898192
0.00078430373
0.00011871056
0.00011056978
8.5729885e-05
4.8556134e-05
3.3288111e-05
2.7148856e-05
2.4317596e-05
2.1877335e-05
1.9015748e-05
1.5605273e-05
1.1735733e-05
7.6110166e-06
3.9778698e-06
1.7978277e-06
7.4702251e-07
2.6025821e-07
7.0953323e-08
1.5280047e-08
2.5410835e-09
3.1994482e-10
4.3803838e-11
2.3778351e-11
2.3636023e-11
0.0017010516
9.9450463e-05
0.00031991906
0.0019066012
0.0018209715
0.0016916884
0.00079740357
0.00012127072
0.00011151259
8.4594274e-05
4.8002796e-05
3.3165767e-05
2.7145571e-05
2.4324702e-05
2.188145e-05
1.9017164e-05
1.5604801e-05
1.173396e-05
7.6084322e-06
3.9754375e-06
1.7963475e-06
7.4630705e-07
2.5996892e-07
7.0870167e-08
1.5261952e-08
2.5381284e-09
3.1959948e-10
4.3775641e-11
2.3773573e-11
2.3631555e-11
0.001700963
9.9511837e-05
0.00032368875
0.0019067921
0.0018219314
0.0016933039
0.00081083835
0.00012409124
0.00011244344
8.3492872e-05
4.747237e-05
3.3047473e-05
2.7142288e-05
2.4331887e-05
2.1886017e-05
1.9019369e-05
1.5605434e-05
1.1733571e-05
7.6071965e-06
3.973917e-06
1.7952979e-06
7.4577825e-07
2.5976129e-07
7.0811168e-08
1.5249117e-08
2.5360386e-09
3.1936035e-10
4.3760191e-11
2.3774286e-11
2.3632187e-11
0.0017008902
9.9559706e-05
0.0003270047
0.001906981
0.0018227592
0.0016946745
0.00082813474
0.00012706764
0.00011333099
8.2436439e-05
4.6975115e-05
3.2937005e-05
2.7139352e-05
2.4338962e-05
2.1890896e-05
1.9022223e-05
1.5606942e-05
1.1734205e-05
7.6069127e-06
3.9730033e-06
1.7945082e-06
7.4534443e-07
2.5960222e-07
7.0766397e-08
1.5239469e-08
2.5344763e-09
3.1918246e-10
4.3747896e-11
2.3773693e-11
2.3631501e-11
0.0017008305
9.959421e-05
0.00033006213
0.0019071289
0.001823478
0.0016958085
0.00084633839
0.0001300663
0.00011415472
8.1438095e-05
4.6520312e-05
3.2838266e-05
2.7137683e-05
2.434617e-05
2.1896154e-05
1.9025609e-05
1.5609004e-05
1.1735376e-05
7.6071588e-06
3.9724549e-06
1.7938486e-06
7.4493735e-07
2.5944621e-07
7.0721833e-08
1.5229783e-08
2.5328876e-09
3.1899638e-10
4.3733007e-11
2.3771276e-11
2.3629242e-11
0.0017007806
9.9615942e-05
0.0003328932
0.0019072427
0.0018240988
0.0016967507
0.00086239371
0.0001329626
0.00011489873
8.0504882e-05
4.6112541e-05
3.2753298e-05
2.7137481e-05
2.4353289e-05
2.1901469e-05
1.902912e-05
1.561118e-05
1.173683e-05
7.6078174e-06
3.9722288e-06
1.7933467e-06
7.4457753e-07
2.5929581e-07
7.0677735e-08
1.522013e-08
2.5313032e-09
3.1881237e-10
4.3720578e-11
2.3771728e-11
2.3629963e-11
0.0017007361
9.9625954e-05
0.0003354954
0.0019073269
0.00182463
0.0016975032
0.00088020233
0.00013573988
0.00011554236
7.9636524e-05
4.5751959e-05
3.2682125e-05
2.7138106e-05
2.4359531e-05
2.1906192e-05
1.9032189e-05
1.561316e-05
1.1738325e-05
7.6086485e-06
3.9722214e-06
1.792976e-06
7.4427147e-07
2.5915939e-07
7.0635946e-08
1.5210715e-08
2.5297294e-09
3.1862886e-10
4.3710194e-11
2.377461e-11
2.3633121e-11
0.001700698
9.9625959e-05
0.00033787669
0.0019073917
0.0018250874
0.0016981056
0.00089721465
0.0001383606
0.00011607934
7.88336e-05
4.5437771e-05
3.2624714e-05
2.7139485e-05
2.4364942e-05
2.1910132e-05
1.9034874e-05
1.5614889e-05
1.1739586e-05
7.6094513e-06
3.9723159e-06
1.7927044e-06
7.4402054e-07
2.5904521e-07
7.0599285e-08
1.5202191e-08
2.5282732e-09
3.1845691e-10
4.3700883e-11
2.3778023e-11
2.3636856e-11
0.0017006629
9.9617558e-05
0.00034005342
0.0019074412
0.0018254808
0.0016985816
0.00091335346
0.00014079909
0.00011651032
7.8096031e-05
4.5167848e-05
3.258063e-05
2.7141733e-05
2.4369408e-05
2.1913373e-05
1.9037037e-05
1.5616099e-05
1.1740383e-05
7.6099505e-06
3.972315e-06
1.7924409e-06
7.4378917e-07
2.5894011e-07
7.0564966e-08
1.5194066e-08
2.5268611e-09
3.1828786e-10
4.3692426e-11
2.3782365e-11
2.3641471e-11
0.0017006291
9.9602467e-05
0.00034205143
0.0019074799
0.0018258204
0.0016989537
0.00092832074
0.00014303664
0.00011684038
7.7421135e-05
4.4938382e-05
3.2548671e-05
2.7144781e-05
2.4372948e-05
2.1915938e-05
1.9038673e-05
1.5616823e-05
1.1740711e-05
7.6101096e-06
3.9721695e-06
1.792164e-06
7.4357652e-07
2.5885024e-07
7.0535364e-08
1.5186899e-08
2.5255899e-09
3.1813411e-10
4.3685504e-11
2.3787322e-11
2.3646651e-11
0.001700595
9.9582365e-05
0.00034390381
0.0019075111
0.0018261154
0.0016992413
0.00094198807
0.00014506616
0.00011707993
7.6805486e-05
4.4744964e-05
3.2527176e-05
2.7148465e-05
2.4375807e-05
2.1917833e-05
1.9039706e-05
1.5617004e-05
1.1740443e-05
7.6097451e-06
3.9717198e-06
1.791784e-06
7.4334399e-07
2.5876109e-07
7.0506508e-08
1.5179895e-08
2.5243362e-09
3.179797e-10
4.3677304e-11
2.3791051e-11
2.3650645e-11
0.0017005595
9.9558683e-05
0.00034564542
0.001907537
0.0018263738
0.0016994598
0.00095437041
0.00014689246
0.00011724195
7.624507e-05
4.4582545e-05
3.2514923e-05
2.7152944e-05
2.4378167e-05
2.1919239e-05
1.904032e-05
1.5616771e-05
1.1739749e-05
7.6089607e-06
3.9709964e-06
1.7913074e-06
7.4309368e-07
2.5867859e-07
7.0480221e-08
1.5173479e-08
2.5231754e-09
3.1783613e-10
4.3669505e-11
2.3794396e-11
2.365428e-11
0.0017005218
9.9532652e-05
0.00034731291
0.0019075587
0.0018266017
0.001699621
0.00096556094
0.00014852725
0.00011734027
7.5735528e-05
4.4447009e-05
3.2510512e-05
2.7158116e-05
2.4380306e-05
2.1920292e-05
1.9040613e-05
1.5616228e-05
1.1738664e-05
7.6077355e-06
3.9699349e-06
1.7906773e-06
7.4279407e-07
2.5858807e-07
7.045317e-08
1.5167049e-08
2.52202e-09
3.1769165e-10
4.3661047e-11
2.3797192e-11
2.3657383e-11
0.0017004811
9.9505417e-05
0.00034894268
0.0019075767
0.0018268044
0.0016997343
0.00097569881
0.00014998562
0.00011738766
7.5270828e-05
4.4334494e-05
3.251248e-05
2.7163958e-05
2.4382302e-05
2.1921129e-05
1.9040689e-05
1.5615495e-05
1.173736e-05
7.6062313e-06
3.9686287e-06
1.7899301e-06
7.4246087e-07
2.5849723e-07
7.0427641e-08
1.5161113e-08
2.5209576e-09
3.1755891e-10
4.3653496e-11
2.3800111e-11
2.3660629e-11
0.001700437
9.9477944e-05
0.00035057167
0.0019075906
0.0018269859
0.0016998062
0.00098489984
0.00015128312
0.00011739354
7.4844591e-05
4.4240538e-05
3.2519359e-05
2.7170182e-05
2.4384061e-05
2.1921707e-05
1.9040517e-05
1.561454e-05
1.1735836e-05
7.6044538e-06
3.967071e-06
1.7890458e-06
7.4207775e-07
2.5839875e-07
7.0401238e-08
1.5155116e-08
2.5198926e-09
3.1742541e-10
4.3645225e-11
2.3802304e-11
2.3663191e-11
0.0017003893
9.9450952e-05
0.00035223225
0.0019075999
0.0018271494
0.0016998419
0.00099329768
0.00015243594
0.00011736576
7.4455662e-05
4.4161597e-05
3.252977e-05
2.7176817e-05
2.4385777e-05
2.1922144e-05
1.9040211e-05
1.5613509e-05
1.1734272e-05
7.6026076e-06
3.9653997e-06
1.7880874e-06
7.4167107e-07
2.5830539e-07
7.03776e-08
1.5149882e-08
2.5189696e-09
3.1731015e-10
4.3637699e-11
2.3803812e-11
2.3665132e-11
0.001700338
9.9424987e-05
0.00035394951
0.0019076042
0.0018272979
0.0016998454
0.0010010702
0.00015346598
0.00011731411
7.4102053e-05
4.4096224e-05
3.2543125e-05
2.7183901e-05
2.4387563e-05
2.1922586e-05
1.9039868e-05
1.5612451e-05
1.1732689e-05
7.6006844e-06
3.9636019e-06
1.7870282e-06
7.4121435e-07
2.5820163e-07
7.0353062e-08
1.5144734e-08
2.5180774e-09
3.1719693e-10
4.3629197e-11
2.3804187e-11
2.3665982e-11
0.0017002826
9.9400292e-05
0.00035574736
0.0019076023
0.0018274329
0.0016998195
0.0010083685
0.00015439171
0.000117245
7.3775401e-05
4.4041723e-05
3.2558728e-05
2.7191359e-05
2.4389497e-05
2.1923114e-05
1.9039589e-05
1.5611477e-05
1.1731213e-05
7.5988362e-06
3.9618058e-06
1.7859394e-06
7.4073723e-07
2.580957e-07
7.0329428e-08
1.5140018e-08
2.5172783e-09
3.1709588e-10
4.3620933e-11
2.3803873e-11
2.3666241e-11
0.001700223
9.9376898e-05
0.00035763129
0.0019075947
0.0018275561
0.0016997674
0.0010152191
0.0001552234
0.00011715796
7.3471748e-05
4.3995791e-05
3.2575774e-05
2.7198958e-05
2.4391522e-05
2.1923706e-05
1.9039344e-05
1.561055e-05
1.1729803e-05
7.5970424e-06
3.9600274e-06
1.7848361e-06
7.4024191e-07
2.5798138e-07
7.0304071e-08
1.5135076e-08
2.5164588e-09
3.1699204e-10
4.3611837e-11
2.3802948e-11
2.3665992e-11
0.0017001546
9.9354595e-05
0.00035959893
0.0019075771
0.0018276638
0.0016996869
0.0010216497
0.00015597366
0.00011705738
7.318941e-05
4.3956515e-05
3.2593827e-05
2.7206452e-05
2.4393516e-05
2.1924305e-05
1.903914e-05
1.5609711e-05
1.1728624e-05
7.5954894e-06
3.9584215e-06
1.7838149e-06
7.3977861e-07
2.5787879e-07
7.0282099e-08
1.5130989e-08
2.5158053e-09
3.1691259e-10
4.3606141e-11
2.3803747e-11
2.3667519e-11
0.0017000851
9.9333943e-05
0.00036167177
0.001907559
0.0018277657
0.0016995878
0.0010277917
0.00015666103
0.00011695107
7.2928869e-05
4.3924355e-05
3.2612848e-05
2.7214065e-05
2.4395703e-05
2.1925121e-05
1.9039138e-05
1.560906e-05
1.1727528e-05
7.5940293e-06
3.9568819e-06
1.782817e-06
7.3931696e-07
2.5777484e-07
7.0260257e-08
1.5127073e-08
2.5151951e-09
3.1683779e-10
4.3600503e-11
2.3804338e-11
2.3668907e-11
0.0017000123
9.931461e-05
0.00036385899
0.0019075376
0.0018278589
0.0016994692
0.0010339125
0.0001572919
0.00011683635
7.2686773e-05
4.3897663e-05
3.2632803e-05
2.7221882e-05
2.4398106e-05
2.1926154e-05
1.9039319e-05
1.5608577e-05
1.172661e-05
7.5927141e-06
3.9554546e-06
1.7818781e-06
7.3887827e-07
2.5767641e-07
7.0240045e-08
1.5123565e-08
2.5146654e-09
3.1677509e-10
4.3596764e-11
2.3806061e-11
2.3671439e-11
0.0016999376
9.929642e-05
0.00036614939
0.0019075134
0.0018279434
0.0016993322
0.0010394935
0.00015787168
0.00011671287
7.2459673e-05
4.3875279e-05
3.2652931e-05
2.7229565e-05
2.4400508e-05
2.1927226e-05
1.9039535e-05
1.5608126e-05
1.1725703e-05
7.591463e-06
3.9540945e-06
1.7809792e-06
7.3845457e-07
2.5757916e-07
7.0219524e-08
1.5119955e-08
2.5141211e-09
3.1671191e-10
4.3593676e-11
2.3808495e-11
2.3674692e-11
0.0016998616
9.9279234e-05
0.00036853228
0.0019074879
0.0018280192
0.001699179
0.001044729
0.00015840772
0.00011659138
7.2246823e-05
4.3857026e-05
3.2673224e-05
2.7236999e-05
2.4402851e-05
2.1928314e-05
1.9039803e-05
1.560777e-05
1.1724992e-05
7.5903996e-06
3.9528984e-06
1.7801742e-06
7.3807658e-07
2.575006e-07
7.020363e-08
1.5117261e-08
2.5137281e-09
3.1666862e-10
4.3593103e-11
2.3812054e-11
2.3679053e-11
0.0016997845
9.9262888e-05
0.00037099153
0.0019074633
0.0018280861
0.0016990103
0.0010497006
0.00015890627
0.0001164687
7.2048963e-05
4.384263e-05
3.2693694e-05
2.7244366e-05
2.4405237e-05
2.1929477e-05
1.9040147e-05
1.5607481e-05
1.1724353e-05
7.5894243e-06
3.9517538e-06
1.7793926e-06
7.3770631e-07
2.5742342e-07
7.0188419e-08
1.5114783e-08
2.5133732e-09
3.1662954e-10
4.3593463e-11
2.381637e-11
2.3684107e-11
0.0016997063
9.9247403e-05
0.00037348439
0.0019074427
0.001828143
0.0016988261
0.001054534
0.00015937215
0.00011634326
7.1865134e-05
4.3831775e-05
3.2714404e-05
2.7251721e-05
2.44077e-05
2.1930743e-05
1.9040612e-05
1.5607275e-05
1.1723854e-05
7.5885904e-06
3.9507128e-06
1.7786661e-06
7.3736211e-07
2.5735709e-07
7.017653e-08
1.5113029e-08
2.5131393e-09
3.1660612e-10
4.3595947e-11
2.3821783e-11
2.3690241e-11
0.0016996268
9.9232809e-05
0.00037599761
0.0019074293
0.0018281889
0.0016986275
0.0010592692
0.00015980882
0.00011621596
7.1695144e-05
4.3823784e-05
3.2734956e-05
2.7258898e-05
2.441009e-05
2.1931954e-05
1.904102e-05
1.5607056e-05
1.1723299e-05
7.5877071e-06
3.9496459e-06
1.7779273e-06
7.3701112e-07
2.5728721e-07
7.0163584e-08
1.5111038e-08
2.5128639e-09
3.1657693e-10
4.3597767e-11
2.3826935e-11
2.36961e-11
0.0016995459
9.9218906e-05
0.00037853623
0.0019074191
0.0018282252
0.0016984148
0.0010639131
0.00016022098
0.00011609002
7.1537128e-05
4.3818458e-05
3.2755553e-05
2.7265963e-05
2.4412468e-05
2.1933179e-05
1.9041461e-05
1.5606902e-05
1.1722838e-05
7.5869302e-06
3.9486586e-06
1.777238e-06
7.3668786e-07
2.5723123e-07
7.0154076e-08
1.5109734e-08
2.5127033e-09
3.1656312e-10
4.3600987e-11
2.383233e-11
2.3702239e-11
0.0016994635
9.9205339e-05
0.00038114772
0.0019074043
0.0018282549
0.0016981888
0.0010684547
0.00016061272
0.00011596746
7.1390137e-05
4.381583e-05
3.2776226e-05
2.7273088e-05
2.4414963e-05
2.193451e-05
1.9041979e-05
1.5606781e-05
1.172236e-05
7.5861083e-06
3.9476291e-06
1.77652e-06
7.3634824e-07
2.5716786e-07
7.0143107e-08
1.5108223e-08
2.5125127e-09
3.1654437e-10
4.3604199e-11
2.3838199e-11
2.3708798e-11
0.0016993797
9.9191907e-05
0.00038384449
0.0019073848
0.0018282781
0.0016979502
0.0010728676
0.00016098673
0.00011584832
7.1253438e-05
4.3815602e-05
3.2796971e-05
2.7280273e-05
2.4417583e-05
2.1935968e-05
1.9042619e-05
1.560672e-05
1.172197e-05
7.5853533e-06
3.9466413e-06
1.7758255e-06
7.3602193e-07
2.5711104e-07
7.0134383e-08
1.5107244e-08
2.5124159e-09
3.1653863e-10
4.3609216e-11
2.3845037e-11
2.3716331e-11
0.0016992942
9.9178635e-05
0.00038663548
0.0019073604
0.0018282951
0.0016976992
0.0010771329
0.00016134301
0.00011573117
7.1125014e-05
4.3817115e-05
3.2817393e-05
2.7287294e-05
2.4420139e-05
2.1937369e-05
1.9043186e-05
1.5606612e-05
1.1721468e-05
7.5844801e-06
3.9455679e-06
1.7750869e-06
7.3567542e-07
2.5704586e-07
7.0123037e-08
1.5105647e-08
2.512213e-09
3.165196e-10
4.3612793e-11
2.385133e-11
2.372333e-11
0.0016992069
9.9165537e-05
0.00038952752
0.001907331
0.0018283058
0.0016974361
0.0010812882
0.00016168141
0.00011561397
7.100478e-05
4.3820267e-05
3.283771e-05
2.7294207e-05
2.4422692e-05
2.1938787e-05
1.9043788e-05
1.5606571e-05
1.1721068e-05
7.5836827e-06
3.9445561e-06
1.7743877e-06
7.3535338e-07
2.5699505e-07
7.0115255e-08
1.5104756e-08
2.5121271e-09
3.1651621e-10
4.3617742e-11
2.385781e-11
2.3730571e-11
0.0016991181
9.9152538e-05
0.00039252671
0.0019072965
0.0018283109
0.0016971614
0.0010853976
0.00016200787
0.00011550156
7.0892881e-05
4.3825278e-05
3.2858009e-05
2.7301193e-05
2.4425364e-05
2.1940306e-05
1.9044465e-05
1.5606568e-05
1.1720654e-05
7.5828454e-06
3.9434804e-06
1.7736415e-06
7.3500544e-07
2.5693499e-07
7.0105517e-08
1.510358e-08
2.5119965e-09
3.1650553e-10
4.3622186e-11
2.3864436e-11
2.3737902e-11
0.0016990275
9.9139581e-05
0.00039563504
0.0019072564
0.0018283099
0.0016968752
0.0010894689
0.00016232205
0.00011539335
7.078872e-05
4.383201e-05
3.2878366e-05
2.7308273e-05
2.4428179e-05
2.1941961e-05
1.9045273e-05
1.5606697e-05
1.172036e-05
7.5820934e-06
3.9424443e-06
1.7729111e-06
7.346656e-07
2.5687939e-07
7.0097735e-08
1.5102868e-08
2.5119466e-09
3.1650597e-10
4.3628098e-11
2.3871805e-11
2.3746001e-11
0.001698935
9.9126709e-05
0.0003988544
0.0019072105
0.001828303
0.001696578
0.0010934495
0.00016262393
0.00011528792
7.0690949e-05
4.3839947e-05
3.2898453e-05
2.731523e-05
2.4430954e-05
2.1943574e-05
1.9046026e-05
1.5606761e-05
1.1719978e-05
7.581241e-06
3.9413111e-06
1.7721283e-06
7.3429981e-07
2.5681303e-07
7.0086832e-08
1.5101423e-08
2.5117705e-09
3.1648951e-10
4.3632091e-11
2.3878445e-11
2.3753396e-11
0.0016988409
9.9113955e-05
0.00040218964
0.0019071585
0.0018282904
0.00169627
0.0010973455
0.00016291737
0.00011518462
7.059914e-05
4.3849059e-05
3.2918474e-05
2.7322137e-05
2.4433724e-05
2.1945199e-05
1.9046821e-05
1.5606902e-05
1.171972e-05
7.5805192e-06
3.9402753e-06
1.7713979e-06
7.3395893e-07
2.567605e-07
7.0079471e-08
1.5100742e-08
2.5117235e-09
3.1649038e-10
4.3637595e-11
2.3885305e-11
2.3761048e-11
0.001698745
9.9101241e-05
0.00040564691
0.0019071002
0.0018282719
0.0016959512
0.0011012257
0.00016320572
0.00011508463
7.0513544e-05
4.3859634e-05
3.2938548e-05
2.7329152e-05
2.4436626e-05
2.194693e-05
1.9047694e-05
1.5607106e-05
1.1719492e-05
7.5797797e-06
3.9391971e-06
1.7706233e-06
7.3359324e-07
2.5669704e-07
7.0069672e-08
1.5099607e-08
2.5116004e-09
3.1647995e-10
4.3642292e-11
2.3892282e-11
2.3768789e-11
0.0016986472
9.9088519e-05
0.00040923086
0.0019070354
0.0018282476
0.0016956219
0.0011051063
0.00016348755
0.00011498818
7.0433535e-05
4.3871565e-05
3.2958782e-05
2.7336296e-05
2.4439671e-05
2.1948785e-05
1.9048685e-05
1.5607439e-05
1.1719401e-05
7.5791532e-06
3.9381862e-06
1.7698785e-06
7.3324088e-07
2.5663924e-07
7.0061818e-08
1.5098968e-08
2.5115698e-09
3.1648276e-10
4.3648863e-11
2.3900303e-11
2.377757e-11
0.0016985477
9.9075863e-05
0.00041294354
0.0019069639
0.0018282175
0.0016952827
0.0011089645
0.00016376053
0.00011489468
7.0358851e-05
4.3884372e-05
3.297863e-05
2.7343298e-05
2.444264e-05
2.1950568e-05
1.9049594e-05
1.5607688e-05
1.1719225e-05
7.5784545e-06
3.9371234e-06
1.7691022e-06
7.3287145e-07
2.5657331e-07
7.005122e-08
1.509765e-08
2.5114197e-09
3.1647035e-10
4.36537e-11
2.3907618e-11
2.3785674e-11
0.0016984462
9.9063307e-05
0.00041678672
0.0019068858
0.0018281816
0.0016949336
0.0011127634
0.00016402725
0.00011480376
7.0289414e-05
4.3897776e-05
3.2998376e-05
2.735018e-05
2.4445567e-05
2.1952336e-05
1.9050535e-05
1.5607956e-05
1.171918e-05
7.5779169e-06
3.9361782e-06
1.7683922e-06
7.32536e-07
2.565244e-07
7.0044803e-08
1.5097171e-08
2.5114083e-09
3.1647617e-10
4.3660135e-11
2.3915177e-11
2.379408e-11
0.0016983428
9.9050773e-05
0.00042076546
0.0019068014
0.0018281396
0.0016945748
0.0011164745
0.0001642868
0.00011471434
7.0224032e-05
4.3912515e-05
3.3018272e-05
2.7357194e-05
2.4448606e-05
2.195418e-05
1.905152e-05
1.560829e-05
1.1719134e-05
7.5773562e-06
3.9352058e-06
1.7676569e-06
7.3218337e-07
2.564675e-07
7.0036862e-08
1.5096484e-08
2.5113636e-09
3.1647609e-10
4.3666234e-11
2.392297e-11
2.3802664e-11
0.0016982375
9.9038205e-05
0.0004248828
0.0019067111
0.0018280917
0.0016942065
0.0011201168
0.00016454001
0.00011462707
7.0163033e-05
4.392839e-05
3.3038285e-05
2.736434e-05
2.445178e-05
2.1956135e-05
1.9052593e-05
1.560872e-05
1.1719189e-05
7.5768896e-06
3.9343012e-06
1.7669581e-06
7.3184835e-07
2.564185e-07
7.0031527e-08
1.5096389e-08
2.51142e-09
3.1648941e-10
4.3673935e-11
2.3931486e-11
2.3811999e-11
0.0016981303
9.9025609e-05
0.00042913335
0.0019066159
0.0018280376
0.0016938289
0.0011236864
0.00016478712
0.00011454202
7.0106325e-05
4.3944924e-05
3.3057968e-05
2.7371354e-05
2.4454879e-05
2.195801e-05
1.9053568e-05
1.560903e-05
1.171911e-05
7.5763089e-06
3.9333252e-06
1.7662232e-06
7.314956e-07
2.5636119e-07
7.0023676e-08
1.5095687e-08
2.5113698e-09
3.1648793e-10
4.3679811e-11
2.3939236e-11
2.3820589e-11
0.0016980212
9.9012984e-05
0.00043350471
0.0019065171
0.0018279767
0.0016934423
0.0011271896
0.00016502904
0.0001144589
7.005346e-05
4.396215e-05
3.3077597e-05
2.7378294e-05
2.4457958e-05
2.1959876e-05
1.9054551e-05
1.5609373e-05
1.1719108e-05
7.5758353e-06
3.9324403e-06
1.765547e-06
7.3117503e-07
2.5631978e-07
7.0019714e-08
1.5095787e-08
2.5114539e-09
3.1650493e-10
4.3687404e-11
2.3947303e-11
2.3829541e-11
0.0016979101
9.9000292e-05
0.00043797983
0.0019064168
0.0018279087
0.0016930466
0.0011306395
0.00016526853
0.00011437923
7.0005039e-05
4.3980412e-05
3.3097257e-05
2.7385345e-05
2.4461147e-05
2.1961825e-05
1.9055579e-05
1.5609723e-05
1.1719066e-05
7.5752928e-06
3.9314972e-06
1.7648332e-06
7.3083347e-07
2.5626925e-07
7.001398e-08
1.5095591e-08
2.5114885e-09
3.1651331e-10
4.3694396e-11
2.3955542e-11
2.3838625e-11
0.0016977972
9.8987544e-05
0.00044253354
0.0019063175
0.0018278328
0.001692642
0.0011340034
0.0001655057
0.00011430285
6.996081e-05
4.3999633e-05
3.3117015e-05
2.7392501e-05
2.4464447e-05
2.1963869e-05
1.9056694e-05
1.5610153e-05
1.1719097e-05
7.5748089e-06
3.9305948e-06
1.7641449e-06
7.3050674e-07
2.5622538e-07
7.0010474e-08
1.5095956e-08
2.5116251e-09
3.165364e-10
4.3703385e-11
2.3964814e-11
2.3848734e-11
0.0016976823
9.8975011e-05
0.00044712979
0.001906222
0.0018277481
0.0016922285
0.0011372872
0.00016573948
0.00011422808
6.9919788e-05
4.4019357e-05
3.3136467e-05
2.7399527e-05
2.4467656e-05
2.196582e-05
1.9057701e-05
1.5610458e-05
1.1718984e-05
7.574189e-06
3.9295986e-06
1.7634107e-06
7.3016019e-07
2.561736e-07
7.0004472e-08
1.5095691e-08
2.51165e-09
3.1654444e-10
4.3710466e-11
2.3973208e-11
2.3857993e-11
0.0016975652
9.8962997e-05
0.00045173939
0.0019061317
0.0018276541
0.0016918059
0.0011405968
0.00016597224
0.00011415567
6.9882014e-05
4.4039654e-05
3.3155882e-05
2.7406477e-05
2.4470828e-05
2.1967746e-05
1.9058713e-05
1.5610797e-05
1.1718948e-05
7.5736642e-06
3.9286729e-06
1.7627212e-06
7.2983965e-07
2.5613607e-07
7.0001893e-08
1.5096119e-08
2.5117913e-09
3.1656871e-10
4.3718944e-11
2.3981726e-11
2.3867422e-11
0.001697446
9.8951379e-05
0.00045636799
0.0019060441
0.0018275516
0.0016913747
0.0011439642
0.00016620686
0.00011408715
6.984814e-05
4.4060919e-05
3.3175388e-05
2.7413553e-05
2.4474103e-05
2.1969746e-05
1.9059772e-05
1.5611155e-05
1.1718885e-05
7.5730729e-06
3.9276808e-06
1.7619861e-06
7.2949454e-07
2.5608882e-07
6.9997534e-08
1.5096287e-08
2.5118841e-09
3.1658531e-10
4.372687e-11
2.3990401e-11
2.3876958e-11
0.0016973247
9.8939901e-05
0.00046110094
0.0019059504
0.0018274442
0.0016909361
0.0011473028
0.00016644168
0.00011402188
6.9817873e-05
4.4083102e-05
3.3195077e-05
2.7420758e-05
2.4477491e-05
2.1971834e-05
1.9060916e-05
1.5611611e-05
1.171888e-05
7.5725493e-06
3.9267261e-06
1.7612696e-06
7.2915964e-07
2.5604715e-07
6.9995206e-08
1.5096961e-08
2.512072e-09
3.1661445e-10
4.3736432e-11
2.3999872e-11
2.3887298e-11
0.0016972012
9.8928417e-05
0.00046596079
0.0019058506
0.0018273324
0.0016904906
0.0011505458
0.00016667383
0.00011395799
6.9790121e-05
4.4105725e-05
3.3214503e-05
2.7427867e-05
2.4480795e-05
2.1973827e-05
1.9061953e-05
1.5611955e-05
1.171879e-05
7.5719166e-06
3.9256853e-06
1.7605055e-06
7.2880238e-07
2.559971e-07
6.9990502e-08
1.5097045e-08
2.512155e-09
3.1662837e-10
4.374392e-11
2.4008354e-11
2.3896685e-11
0.0016970753
9.8917021e-05
0.00047097288
0.0019057448
0.0018272161
0.0016900383
0.0011537414
0.00016690459
0.00011389571
6.9764863e-05
4.4128827e-05
3.3233957e-05
2.7434929e-05
2.4484068e-05
2.1975793e-05
1.9062988e-05
1.561233e-05
1.1718787e-05
7.5713885e-06
3.9247223e-06
1.7597842e-06
7.2846687e-07
2.5595832e-07
6.9988542e-08
1.5097737e-08
2.5123434e-09
3.1665743e-10
4.3752839e-11
2.4017101e-11
2.3906364e-11
0.0016969469
9.890578e-05
0.00047615002
0.0019056328
0.0018270955
0.0016895793
0.0011569489
0.00016713665
0.00011383653
6.9742785e-05
4.415279e-05
3.3253541e-05
2.7442125e-05
2.4487436e-05
2.1977815e-05
1.9064054e-05
1.5612722e-05
1.1718775e-05
7.57082e-06
3.9237104e-06
1.7590258e-06
7.2811014e-07
2.5591041e-07
6.9984668e-08
1.5098071e-08
2.5124716e-09
3.1667673e-10
4.376107e-11
2.4026e-11
2.3916176e-11
0.0016968161
9.8894674e-05
0.00048150544
0.0019055146
0.0018269708
0.0016891141
0.0011601483
0.0001673696
0.00011378033
6.9723723e-05
4.4177542e-05
3.3273347e-05
2.7449444e-05
2.4490897e-05
2.1979903e-05
1.9065176e-05
1.5613181e-05
1.1718844e-05
7.5703288e-06
3.9227493e-06
1.7582927e-06
7.2776568e-07
2.558676e-07
6.9982555e-08
1.509886e-08
2.5126839e-09
3.1670861e-10
4.3771131e-11
2.4035931e-11
2.3927007e-11
0.0016966829
9.8883808e-05
0.00048704864
0.0019053903
0.0018268422
0.001688643
0.0011632785
0.00016760174
0.00011372572
6.9706785e-05
4.4202599e-05
3.3292794e-05
2.7456646e-05
2.4494251e-05
2.1981867e-05
1.9066159e-05
1.5613498e-05
1.1718782e-05
7.5697335e-06
3.9217236e-06
1.7575271e-06
7.274063e-07
2.5581863e-07
6.9978386e-08
1.5099141e-08
2.5128066e-09
3.1672856e-10
4.3779673e-11
2.4045155e-11
2.3937152e-11
0.0016965471
9.8873356e-05
0.00049278629
0.00190526
0.0018267096
0.0016881658
0.0011663772
0.00016783495
0.00011367328
6.9692056e-05
4.4228006e-05
3.3312258e-05
2.7463783e-05
2.4497559e-05
2.1983784e-05
1.9067114e-05
1.5613822e-05
1.1718788e-05
7.5692415e-06
3.9207754e-06
1.7568127e-06
7.2707268e-07
2.5578303e-07
6.9977328e-08
1.5100026e-08
2.5130301e-09
3.1676247e-10
4.3789325e-11
2.4054375e-11
2.3947354e-11
0.0016964084
9.8863277e-05
0.00049872648
0.0019051242
0.0018265731
0.0016876822
0.0011695116
0.00016807226
0.00011362465
6.9680166e-05
4.4254077e-05
3.3331772e-05
2.7471026e-05
2.4500942e-05
2.1985736e-05
1.9068069e-05
1.5614116e-05
1.1718738e-05
7.5686893e-06
3.9197782e-06
1.7560613e-06
7.2672036e-07
2.557397e-07
6.9974958e-08
1.5100765e-08
2.5132322e-09
3.1679185e-10
4.3798785e-11
2.4063898e-11
2.3957797e-11
0.0016962669
9.8853484e-05
0.00050487054
0.0019049831
0.0018264324
0.0016871921
0.0011726603
0.00016831373
0.00011357994
6.9670977e-05
4.428074e-05
3.3351479e-05
2.7478381e-05
2.450442e-05
2.1987754e-05
1.9069072e-05
1.5614453e-05
1.171874e-05
7.568191e-06
3.9188246e-06
1.7553353e-06
7.2638158e-07
2.5570321e-07
6.9974921e-08
1.5102039e-08
2.5135258e-09
3.1683366e-10
4.3809775e-11
2.4074126e-11
2.3968979e-11
0.0016961227
9.8843998e-05
0.00051122548
0.0019048372
0.0018262876
0.0016866955
0.0011757693
0.00016855855
0.00011353817
6.9663786e-05
4.4307591e-05
3.3370786e-05
2.7485634e-05
2.4507809e-05
2.1989661e-05
1.9069938e-05
1.561463e-05
1.1718564e-05
7.5675392e-06
3.9177757e-06
1.7545628e-06
7.2602146e-07
2.5565817e-07
6.9972541e-08
1.5102778e-08
2.5137267e-09
3.1686203e-10
4.3818893e-11
2.4083448e-11
2.3979269e-11
0.0016959759
9.8834796e-05
0.00051780609
0.0019046871
0.0018261384
0.0016861919
0.0011788799
0.00016880835
0.00011349981
6.9658689e-05
4.4334705e-05
3.3390108e-05
2.7492874e-05
2.4511206e-05
2.1991573e-05
1.9070811e-05
1.5614819e-05
1.1718438e-05
7.5669669e-06
3.9167809e-06
1.7538342e-06
7.2568858e-07
2.5562601e-07
6.997303e-08
1.5104082e-08
2.5140246e-09
3.1690488e-10
4.3829248e-11
2.4092828e-11
2.3989686e-11
0.0016958262
9.8825673e-05
0.00052460161
0.0019045332
0.001825984
0.0016856806
0.0011819903
0.0001690622
0.00011346442
6.9655483e-05
4.4362095e-05
3.3409324e-05
2.7500187e-05
2.4514679e-05
2.1993544e-05
1.907165e-05
1.5614996e-05
1.1718255e-05
7.5663114e-06
3.9157292e-06
1.7530648e-06