/*--------------------------------*- C++ -*----------------------------------*\
| =========                 |                                                 |
| \\      /  F ield         | OpenFOAM: The Open Source CFD Toolbox           |
|  \\    /   O peration     | Version:  v2012                                 |
|   \\  /    A nd           | Website:  www.openfoam.com                      |
|    \\/     M anipulation  |                                                 |
\*---------------------------------------------------------------------------*/
FoamFile
{
    version     2.0;
    format      ascii;
    class       volScalarField;
    location    "50";
    object      k;
}
// * * * * * * * * * * * * * * * * * * * * * * * * * * * * * * * * * * * * * //

dimensions      [0 2 -2 0 0 0 0];


internalField   nonuniform List<scalar> 
24000
(
0.088293748
0.098576862
0.09159577
0.089241401
0.08891416
0.089348442
0.090994525
0.097173634
0.1020269
0.10966765
0.12918548
0.16991211
0.24691725
0.37461227
0.51491618
0.6114145
0.63801176
0.60328991
0.53010618
0.43635338
0.3291001
0.21829013
0.12188975
0.056505394
0.022219162
0.0074524384
0.0021361962
0.00075025447
0.00139025
0.0096268021
0.088272752
0.098557416
0.091547373
0.089200201
0.088879041
0.089317899
0.090936944
0.096974452
0.10195023
0.10971383
0.1294669
0.17026123
0.24723546
0.37434318
0.51199902
0.60440688
0.62756793
0.59110948
0.51809178
0.42575611
0.32061382
0.21221371
0.11795304
0.054688631
0.02154494
0.0072418404
0.002099605
0.00080715605
0.0016622675
0.011630385
0.088265078
0.098554361
0.091518253
0.089186567
0.088854607
0.089290714
0.090912556
0.096987718
0.10200911
0.10998628
0.13015398
0.17118516
0.24841386
0.37599668
0.51352418
0.60516959
0.62766541
0.59123101
0.51877508
0.42722012
0.32280629
0.21464868
0.12007679
0.055838009
0.02200632
0.0073877452
0.0021302854
0.00079344427
0.0015823176
0.011041657
0.08826118
0.098550735
0.091489581
0.089176063
0.08883989
0.089276057
0.090893409
0.096953772
0.10202579
0.11021378
0.13074271
0.17194823
0.24932502
0.37728952
0.51486301
0.60596694
0.62768598
0.59061794
0.51780229
0.42601214
0.32141431
0.21324736
0.11893585
0.055167802
0.021706234
0.0072812146
0.002100558
0.00078725254
0.0015806735
0.011036116
0.088258298
0.098546185
0.091462266
0.08916747
0.088829338
0.089265097
0.090871807
0.096906504
0.1020238
0.11042248
0.1313007
0.17262657
0.25002006
0.3781801
0.51576276
0.60650246
0.62772308
0.59026902
0.51725554
0.42536144
0.32071738
0.21262339
0.11850223
0.054930626
0.021602667
0.0072442926
0.0020892212
0.00078197573
0.0015679078
0.010944993
0.088256349
0.098541505
0.091437409
0.089160475
0.088821762
0.089256666
0.090851465
0.096837722
0.10200722
0.11061672
0.1318369
0.17325123
0.25058436
0.37882432
0.51637653
0.60681018
0.62761787
0.58983673
0.51665084
0.42467163
0.31999895
0.21198438
0.11805013
0.054684997
0.021497056
0.0072073787
0.0020784886
0.00077818043
0.0015607765
0.010895293
0.088255198
0.098537034
0.091415261
0.089154796
0.088816433
0.089249906
0.090832302
0.09675418
0.10198129
0.11080038
0.13235786
0.17383715
0.25106017
0.37930225
0.51679551
0.60696961
0.62744108
0.58939973
0.51608565
0.42406011
0.31939555
0.21147347
0.11770505
0.054503331
0.021420359
0.0071808073
0.0020707559
0.00077532773
0.0015551528
0.010856108
0.088254653
0.098532991
0.0913958
0.089150205
0.088812554
0.089244402
0.090814507
0.096660387
0.10194948
0.11097487
0.13286311
0.17438838
0.25147259
0.37967049
0.51709083
0.60704132
0.62723031
0.58897247
0.51555597
0.42350466
0.31886599
0.21103838
0.11741793
0.054355235
0.021358686
0.0071596266
0.0020646527
0.00077316616
0.0015511021
0.010828224
0.088254535
0.098529497
0.091378816
0.089146552
0.08880953
0.089239872
0.090798195
0.096560441
0.10191469
0.11114085
0.13334996
0.17490404
0.25183535
0.37996471
0.5173094
0.60706883
0.62701873
0.5885775
0.51507598
0.42301094
0.31840721
0.21067026
0.11717909
0.054233859
0.021308652
0.0071425486
0.0020597751
0.00077152019
0.0015482094
0.010808558
0.088254704
0.098526609
0.091364081
0.089143723
0.088807031
0.089236136
0.0907833
0.096457861
0.10187925
0.11129858
0.13381458
0.17538084
0.2521558
0.38020818
0.51748251
0.6070813
0.62682824
0.58822873
0.5146529
0.42258024
0.31801489
0.21036183
0.11698134
0.054134602
0.021268138
0.0071288218
0.0020559105
0.00077033256
0.0015463923
0.010796411
0.088255052
0.098524349
0.091351408
0.089141622
0.088804941
0.089233012
0.090769515
0.096355674
0.10184567
0.11144829
0.13425288
0.17581502
0.25243775
0.38041605
0.51763082
0.60709789
0.62667382
0.58793632
0.51429253
0.42221328
0.31768563
0.21010711
0.11681959
0.054054131
0.021235544
0.0071178483
0.0020528672
0.00076950306
0.0015453847
0.010789855
0.088255481
0.098522721
0.091340688
0.089140123
0.088803229
0.089230505
0.090757026
0.09625558
0.1018159
0.11159023
0.13466153
0.17620334
0.25268324
0.38059813
0.51776722
0.60712911
0.62656229
0.58770424
0.51399666
0.42190939
0.31741544
0.20990182
0.11669142
0.053991274
0.021210404
0.0071094825
0.0020505994
0.00076898159
0.0015450106
0.010787612
0.088255933
0.098521768
0.091331874
0.089138969
0.088801884
0.089228629
0.090746039
0.096158905
0.10179076
0.11172469
0.13503824
0.17654382
0.25289366
0.38076083
0.51789971
0.60717991
0.62649486
0.58753105
0.51376172
0.42166167
0.31719405
0.2097358
0.11659024
0.053942446
0.021191116
0.0071031473
0.0020489229
0.000768655
0.0015449399
0.01078731
0.088256331
0.098521584
0.091324969
0.089137831
0.088800869
0.089227391
0.090736497
0.096067515
0.10177064
0.11185237
0.13538152
0.17683602
0.25307048
0.38090838
0.51803293
0.60725145
0.6264679
0.5874092
0.5135769
0.42145641
0.31700698
0.20959595
0.11650709
0.053902996
0.021175687
0.0070981218
0.0020475976
0.00076837096
0.0015447655
0.010786233
0.088256672
0.09852205
0.091319201
0.089137201
0.088800282
0.089226875
0.0907289
0.095982357
0.10175573
0.11197384
0.13569123
0.17708132
0.25321599
0.38104457
0.51817034
0.60734234
0.62647275
0.5873235
0.51342501
0.42127566
0.31683581
0.20946491
0.11642815
0.053864919
0.02116048
0.0070930554
0.0020462254
0.00076804359
0.0015444767
0.010784452
0.088256972
0.098523047
0.091314409
0.089136996
0.088800089
0.089226837
0.090722587
0.095905376
0.10174623
0.11208932
0.1359683
0.1772825
0.25333269
0.38117114
0.51831152
0.60744707
0.62649895
0.58726222
0.51329638
0.42111528
0.31667994
0.2093423
0.11635216
0.053827723
0.021145499
0.007088028
0.0020448632
0.00076775686
0.0015443693
0.010784038
0.088257219
0.098524421
0.091310404
0.089137084
0.088800219
0.089227384
0.090717833
0.095835632
0.10174193
0.11219899
0.13621436
0.17744305
0.25342248
0.38128699
0.51845225
0.60755798
0.6265391
0.58722149
0.5131913
0.42097792
0.31654314
0.20923188
0.11628188
0.053792508
0.021131043
0.007083099
0.0020435217
0.00076751053
0.0015444234
0.010784775
0.088257455
0.09852609
0.09130705
0.089137383
0.08880062
0.08922837
0.090714356
0.095773748
0.10174245
0.11230311
0.13643165
0.17756714
0.25348742
0.38138999
0.51858544
0.60766765
0.62658706
0.58719777
0.51310794
0.42086325
0.31642661
0.20913627
0.1162199
0.053760855
0.02111783
0.0070785301
0.0020422636
0.00076728507
0.0015445149
0.010785792
0.088257727
0.09852798
0.091304209
0.089137824
0.088801234
0.089229724
0.090711998
0.095719517
0.10174731
0.11240191
0.13662281
0.17765944
0.25353035
0.38147878
0.51870612
0.60776902
0.62663344
0.58717953
0.51303558
0.42076175
0.3163226
0.20904981
0.11616271
0.053730967
0.021105095
0.0070740473
0.0020410149
0.00076707296
0.001544664
0.010787205
0.08825802
0.098529965
0.091301693
0.089138294
0.088801962
0.089231314
0.090710538
0.09567249
0.10175585
0.11249556
0.13679056
0.17772458
0.25355429
0.38155013
0.51880978
0.60785432
0.6266687
0.58715781
0.51296706
0.42066887
0.31622905
0.20897267
0.11611176
0.053704066
0.021093492
0.0070699199
0.0020398569
0.00076688547
0.0015448506
0.010788868
0.088258338
0.098531968
0.091299352
0.089138724
0.088802735
0.089233046
0.090709794
0.095632075
0.10176743
0.11258429
0.13693771
0.17776717
0.25356143
0.38160461
0.51889339
0.60791841
0.62668539
0.58712368
0.5128935
0.42057647
0.31613911
0.20889969
0.11606385
0.053678482
0.021082297
0.0070658839
0.0020387077
0.00076668096
0.0015449676
0.010790043
0.088258688
0.098533924
0.091297062
0.089139062
0.088803502
0.089234839
0.090709604
0.095597567
0.10178134
0.11266843
0.13706693
0.17779152
0.25355399
0.38164272
0.51895555
0.60795712
0.62667748
0.58707001
0.51280826
0.42048016
0.31605078
0.20883097
0.11602002
0.05365519
0.021072073
0.0070621846
0.0020376483
0.00076648864
0.0015450683
0.010791096
0.088259069
0.098535781
0.091294713
0.08913927
0.08880422
0.089236635
0.090709836
0.09556822
0.101797
0.11274827
0.13718064
0.17780177
0.25353442
0.38166637
0.51899658
0.6079695
0.62664182
0.58699133
0.51270435
0.42037207
0.31595655
0.20876024
0.11597621
0.053632066
0.02106189
0.0070584744
0.0020365771
0.00076628492
0.0015451354
0.010791918
0.088259484
0.098537506
0.091292219
0.08913933
0.088804859
0.089238394
0.090710386
0.095543309
0.10181396
0.11282402
0.13728097
0.17780046
0.25350581
0.38167731
0.51901752
0.60795617
0.62657855
0.58688694
0.5125805
0.42025152
0.31585669
0.20868881
0.11593408
0.053610338
0.021052394
0.00705502
0.002035578
0.00076609596
0.0015452107
0.010792811
0.088259931
0.098539077
0.091289518
0.08913924
0.088805394
0.089240089
0.09071118
0.095522154
0.10183186
0.11289588
0.13736986
0.17779021
0.25346979
0.38167714
0.51902051
0.60791962
0.6264901
0.58675842
0.5124369
0.42011739
0.31574948
0.20861483
0.11589221
0.05358907
0.021043105
0.007051629
0.0020345924
0.00076590088
0.00154525
0.010793452
0.08826041
0.098540481
0.091286571
0.089139006
0.088805834
0.08924171
0.090712159
0.095504126
0.10185043
0.11296403
0.13744889
0.17777255
0.25342821
0.38166728
0.5190072
0.60786268
0.62638003
0.58660983
0.51227724
0.4199733
0.31563869
0.20854229
0.11585401
0.053570422
0.02103508
0.0070487178
0.0020337449
0.00076572405
0.0015452535
0.010793837
0.088260922
0.098541717
0.091283358
0.089138642
0.088806188
0.08924326
0.090713292
0.095488672
0.10186946
0.11302871
0.13751954
0.17774879
0.25338298
0.38164983
0.51898055
0.60778859
0.62625156
0.58644323
0.51210163
0.41981645
0.31551941
0.20846563
0.11581517
0.053551942
0.021027172
0.0070458345
0.0020328957
0.00076552815
0.0015451829
0.010793715
0.088261467
0.098542783
0.091279869
0.089138161
0.088806464
0.089244745
0.090714549
0.095475329
0.10188876
0.11309023
0.13758263
0.17772002
0.25333479
0.38162583
0.51894243
0.60770031
0.62610856
0.5862632
0.51191457
0.41965082
0.31539458
0.20838694
0.11577704
0.053534581
0.021019915
0.0070432141
0.0020321219
0.00076533493
0.0015450672
0.010793313
0.08826204
0.098543692
0.091276106
0.089137569
0.088806661
0.089246169
0.090715906
0.095463738
0.10190824
0.11314877
0.13763914
0.17768709
0.25328423
0.38159646
0.51889517
0.60760129
0.62595534
0.58607422
0.51172012
0.41947918
0.31526522
0.20830547
0.11573793
0.053517064
0.02101266
0.007040594
0.0020313435
0.00076513225
0.0015449208
0.010792729
0.088262576
0.098544396
0.091271997
0.089136812
0.088806722
0.089247473
0.090717282
0.095453538
0.10192768
0.11320438
0.13768964
0.17765035
0.25323104
0.3815614
0.51883934
0.60749364
0.62579567
0.5858825
0.51152549
0.41930992
0.31514001
0.20822877
0.11570282
0.053502125
0.021006685
0.0070384827
0.0020307286
0.00076498874
0.0015448833
0.010792923
0.088263131
0.098544983
0.091267608
0.089135953
0.088806719
0.089248727
0.09071873
0.095444565
0.10194709
0.11325736
0.1377346
0.17761024
0.25317598
0.38152244
0.51877812
0.60738126
0.62563311
0.58568964
0.51133103
0.41914128
0.31501558
0.20815269
0.11566827
0.053487583
0.021000904
0.0070364362
0.0020301297
0.00076484372
0.0015448288
0.010793026
0.088263773
0.098545549
0.091263031
0.089135057
0.088806726
0.089250005
0.090720308
0.095436736
0.10196649
0.11330801
0.13777451
0.17756767
0.25311975
0.38148093
0.51871384
0.60726723
0.6254708
0.58549802
0.51113862
0.41897514
0.31489367
0.20807877
0.11563516
0.053473974
0.020995602
0.0070345839
0.0020295942
0.00076472643
0.0015448392
0.010793607
0.088264433
0.098546045
0.091258238
0.089134058
0.088806684
0.089251252
0.090721958
0.095429851
0.10198574
0.11335645
0.13780936
0.177523
0.2530622
0.38143684
0.51864707
0.60715271
0.62531045
0.58530961
0.51095009
0.41881279
0.31477502
0.2080069
0.1156028
0.053460541
0.020990326
0.0070327337
0.0020290636
0.00076462254
0.001544897
0.010794521
0.088265102
0.098546483
0.091253276
0.089132939
0.08880659
0.089252455
0.090723649
0.095423832
0.10200479
0.11340261
0.13783959
0.17747608
0.25300282
0.38138959
0.51857756
0.60703829
0.6251535
0.58512697
0.51076863
0.41865903
0.31466558
0.20794321
0.11557604
0.053450092
0.020986355
0.0070313597
0.0020286757
0.00076456475
0.0015450277
0.010795921
0.088265779
0.098546874
0.091248202
0.089131673
0.088806441
0.089253606
0.090725374
0.095418574
0.10202366
0.11344652
0.13786554
0.17742728
0.25294203
0.38133989
0.51850612
0.60692402
0.62499907
0.58494818
0.51059089
0.41850855
0.31455888
0.20788132
0.11555009
0.053439873
0.020982409
0.0070299702
0.0020282817
0.00076451505
0.0015451945
0.010797564
0.088266465
0.098547225
0.091243084
0.089130212
0.088806229
0.089254683
0.090727134
0.095413968
0.10204233
0.11348832
0.13788763
0.17737693
0.25288009
0.381288
0.51843272
0.60680938
0.6248458
0.58477235
0.51041703
0.41836224
0.31445646
0.20782331
0.11552701
0.053431322
0.020979234
0.0070288721
0.0020279773
0.00076449793
0.0015454247
0.010799654
0.088267157
0.098547543
0.091237951
0.089128517
0.08880595
0.089255742
0.09072893
0.095409929
0.10206076
0.11352809
0.13790622
0.17732536
0.25281741
0.38123451
0.5183578
0.60669423
0.62469314
0.58459785
0.51024465
0.4182171
0.31435473
0.20776538
0.11550365
0.053422387
0.020975797
0.0070276518
0.0020276331
0.00076446983
0.0015456399
0.010801634
0.088267857
0.09854783
0.09123274
0.089126661
0.088805619
0.089256789
0.090730766
0.095406378
0.10207892
0.11356597
0.13792161
0.1772727
0.25275391
0.38117904
0.51828049
0.6065776
0.62454066
0.5844247
0.51007487
0.41807612
0.31425838
0.20771301
0.1154846
0.05341593
0.020973502
0.0070268639
0.0020274175
0.00076447232
0.0015458774
0.010803756
0.088268563
0.098548085
0.091227351
0.089124765
0.088805258
0.08925783
0.090732644
0.095403258
0.10209681
0.11360208
0.13793413
0.17721928
0.2526902
0.3811225
0.51820159
0.60645918
0.6243864
0.58424963
0.5099031
0.41793278
0.31415967
0.20765842
0.11546381
0.053408399
0.020970671
0.0070258561
0.0020271361
0.00076446701
0.0015461346
0.010806016
0.088269277
0.098548309
0.091221782
0.089122844
0.088804869
0.089258863
0.090734561
0.095400528
0.10211442
0.11363654
0.13794403
0.17716528
0.2526264
0.38106499
0.51812107
0.60633882
0.62422977
0.58407288
0.5097304
0.41778944
0.31406174
0.20760525
0.11544457
0.053401987
0.02096842
0.0070250825
0.0020269282
0.00076448886
0.0015464477
0.010808686
0.088269998
0.098548503
0.091216033
0.089120906
0.088804458
0.089259887
0.090736513
0.095398147
0.10213177
0.11366944
0.13795154
0.17711081
0.2525627
0.38100691
0.51803955
0.60621718
0.62407148
0.58389419
0.50955577
0.41764401
0.31396169
0.20754996
0.1154236
0.053394414
0.020965569
0.0070240675
0.0020266465
0.00076449013
0.0015467337
0.010811166
0.088270723
0.098548667
0.091210107
0.089118956
0.08880403
0.089260906
0.090738497
0.095396069
0.10214884
0.11370085
0.13795678
0.17705579
0.2524987
0.38094756
0.51795615
0.60609393
0.62391226
0.58371509
0.50938169
0.41750139
0.31386632
0.20750009
0.11540711
0.053389474
0.020963943
0.0070235195
0.0020265039
0.00076452384
0.0015470414
0.010813785
0.088271457
0.098548808
0.091204006
0.089117
0.088803593
0.089261924
0.090740516
0.095394255
0.10216564
0.11373085
0.13795995
0.17700045
0.25243492
0.38088783
0.51787191
0.60596941
0.62375116
0.58353331
0.50920427
0.41735501
0.31376725
0.20744689
0.11538824
0.053383105
0.02096161
0.0070226828
0.0020262723
0.00076453925
0.0015473458
0.010816386
0.0882722
0.098548922
0.091197733
0.08911504
0.088803147
0.089262944
0.090742568
0.095392681
0.10218217
0.11375951
0.1379612
0.17694483
0.25237131
0.38082763
0.51778675
0.60584381
0.62358875
0.58335007
0.5090257
0.41720796
0.313668
0.20739428
0.11537044
0.053377645
0.020959781
0.0070220582
0.0020261082
0.00076457737
0.0015476932
0.010819311
0.088272947
0.098549004
0.091191282
0.089113074
0.088802689
0.089263963
0.090744646
0.095391323
0.10219844
0.11378691
0.13796066
0.17688901
0.25230807
0.38076742
0.51770143
0.60571797
0.6234258
0.58316552
0.5088451
0.41705803
0.31356557
0.2073385
0.11535012
0.053370565
0.020957133
0.0070211028
0.0020258422
0.00076458639
0.0015480026
0.010821979
0.088273702
0.098549058
0.091184657
0.089111105
0.088802224
0.089264984
0.090746755
0.095390149
0.10221445
0.11381308
0.1379584
0.17683289
0.25224473
0.38070641
0.517615
0.60559163
0.62326306
0.58298205
0.50866654
0.41691179
0.31346834
0.20728819
0.11533428
0.053366127
0.020955714
0.0070206152
0.0020257139
0.00076462629
0.0015483299
0.010824759
0.088274464
0.098549083
0.091177858
0.089109133
0.088801751
0.089266007
0.090748895
0.095389135
0.1022302
0.11383808
0.13795457
0.17677666
0.25218175
0.38064536
0.51752838
0.60546509
0.62310003
0.58279768
0.50848637
0.41676303
0.31336786
0.20723442
0.11531567
0.053360002
0.020953468
0.0070197955
0.0020254855
0.00076464672
0.0015486577
0.010827554
0.088275231
0.098549076
0.091170884
0.089107156
0.088801269
0.089267032
0.090751057
0.095388272
0.10224569
0.11386196
0.13794924
0.17672032
0.25211908
0.38058417
0.5174414
0.60533847
0.62293734
0.58261377
0.50830675
0.41661516
0.31326843
0.20718203
0.11529851
0.053354938
0.020951778
0.0070192001
0.0020253267
0.00076469371
0.0015490434
0.010830774
0.088276005
0.098549036
0.09116374
0.089105172
0.088800777
0.089268057
0.090753238
0.095387556
0.10226092
0.11388476
0.13794251
0.17666397
0.25205684
0.38052311
0.51735461
0.60521237
0.62277565
0.58243068
0.50812765
0.41646722
0.31316826
0.20712822
0.1152798
0.053348706
0.020949456
0.007018345
0.002025087
0.00076471648
0.0015493938
0.010833751
0.088276783
0.098548961
0.091156433
0.089103177
0.088800274
0.08926908
0.090755438
0.09538697
0.10227591
0.11390651
0.13793409
0.17660734
0.2519944
0.38046117
0.51726674
0.60508613
0.62261483
0.58225053
0.50795296
0.41632551
0.31307559
0.20708177
0.11526668
0.05334562
0.020948557
0.007018021
0.0020250032
0.0007647755
0.0015497692
0.010836889
0.088277563
0.098548855
0.091148975
0.089101164
0.088799754
0.089270097
0.090757655
0.095386499
0.10229065
0.11392728
0.13792433
0.17655065
0.25193225
0.3803991
0.51717862
0.60495985
0.62245425
0.58207073
0.50777823
0.41618292
0.31298152
0.20703349
0.11525188
0.053341401
0.02094706
0.0070174415
0.0020248389
0.0007648189
0.0015501465
0.010840045
0.088278349
0.098548716
0.091141383
0.089099125
0.088799217
0.089271103
0.090759884
0.095386131
0.10230515
0.11394707
0.13791355
0.17649402
0.25187046
0.38033691
0.51709003
0.60483336
0.62229433
0.58189185
0.50760488
0.41604229
0.31288968
0.20698753
0.11523913
0.05333856
0.020946252
0.0070171357
0.0020247583
0.00076488781
0.0015505661
0.010843519
0.08827914
0.098548543
0.091133685
0.089097041
0.088798657
0.089272091
0.090762119
0.095385855
0.1023194
0.11396592
0.13790163
0.17643745
0.25180916
0.3802749
0.51700146
0.60470692
0.62213471
0.5817133
0.50743171
0.41590125
0.31279681
0.20693999
0.11522475
0.05333449
0.020944772
0.0070165446
0.0020245867
0.0007649289
0.0015509454
0.010846719
0.088279937
0.09854834
0.091125918
0.089094887
0.088798063
0.089273053
0.090764357
0.095385654
0.10233341
0.11398384
0.13788855
0.17638079
0.25174781
0.38021213
0.51691173
0.60457977
0.62197535
0.58153653
0.50726181
0.41576539
0.31271055
0.20689919
0.11521558
0.05333342
0.020944674
0.0070164801
0.0020245716
0.00076500705
0.0015513517
0.010850092
0.088280741
0.098548114
0.091118127
0.089092626
0.088797428
0.089273987
0.0907666
0.095385513
0.10234717
0.1140009
0.13787443
0.17632421
0.25168686
0.38014937
0.51682164
0.60445194
0.62181511
0.5813586
0.50709042
0.41562737
0.31262178
0.20685572
0.11520418
0.053330934
0.020943858
0.0070161166
0.0020244642
0.00076506749
0.0015517603
0.010853489
0.088281555
0.098547866
0.091110357
0.089090208
0.088796743
0.089274912
0.090768851
0.095385423
0.10236071
0.11401713
0.13785933
0.17626771
0.2516262
0.38008638
0.51673092
0.6043233
0.62165412
0.58118019
0.50691907
0.41549016
0.31253433
0.20681403
0.11519456
0.053329713
0.020943696
0.0070160175
0.0020244391
0.00076515701
0.0015522263
0.010857304
0.088282379
0.098547597
0.091102637
0.089087587
0.088796001
0.089275833
0.090771109
0.095385359
0.10237401
0.11403256
0.1378433
0.17621133
0.25156592
0.3800234
0.51664004
0.60419438
0.62149269
0.58100105
0.50674678
0.41535167
0.31244529
0.20677049
0.11518328
0.053327294
0.020942897
0.007015655
0.0020243309
0.00076521949
0.0015526475
0.010860809
0.088283213
0.098547311
0.091094958
0.089084749
0.088795199
0.089276757
0.090773381
0.095385292
0.10238709
0.11404722
0.13782634
0.1761549
0.25150552
0.37995953
0.51654787
0.60406457
0.62133104
0.58082285
0.50657667
0.41521725
0.31236193
0.206733
0.1151768
0.053327658
0.020943383
0.0070157842
0.0020243691
0.00076531484
0.0015530853
0.01086441
0.088284056
0.098547009
0.091087247
0.089081751
0.088794355
0.089277688
0.090775669
0.095385217
0.10239995
0.11406114
0.13780856
0.17609862
0.25144543
0.37989546
0.51645516
0.60393395
0.62116815
0.5806429
0.50640417
0.41507975
0.31227522
0.20669229
0.11516789
0.053326545
0.020943136
0.0070156161
0.0020243153
0.0007653917
0.0015535221
0.010868012
0.088284911
0.09854668
0.091079387
0.08907874
0.088793505
0.089278625
0.09077797
0.095385152
0.1024126
0.11407437
0.13779001
0.17604249
0.25138558
0.37983101
0.51636166
0.60380248
0.62100437
0.58046174
0.50623104
0.41494227
0.31218902
0.20665267
0.11516039
0.053326532
0.020943474
0.007015684
0.0020243356
0.00076549294
0.0015540032
0.010871941
0.08828578
0.098546319
0.091071372
0.089075742
0.088792656
0.089279565
0.090780278
0.0953851
0.10242505
0.11408694
0.13777077
0.17598657
0.25132607
0.37976639
0.51626774
0.60367061
0.62084019
0.5802797
0.50605672
0.41480295
0.31210059
0.20661066
0.11515093
0.053325195
0.02094312
0.0070154643
0.0020242642
0.00076556305
0.0015544313
0.010875509
0.08828666
0.098545923
0.091063199
0.08907277
0.088791811
0.089280509
0.090782591
0.095385034
0.10243728
0.11409885
0.13775083
0.17593071
0.25126638
0.37970066
0.5161722
0.60353765
0.62067585
0.58009889
0.50588444
0.41466716
0.31201689
0.20657366
0.11514549
0.053326217
0.020943864
0.0070156655
0.0020243179
0.00076566233
0.0015548791
0.010879202
0.088287552
0.098545494
0.091054869
0.089069831
0.088790971
0.08928146
0.090784913
0.095384941
0.1024493
0.11411013
0.13773026
0.17587506
0.25120693
0.37963446
0.51607569
0.60340358
0.62051041
0.57991666
0.50571033
0.41452884
0.3119302
0.20653359
0.11513762
0.053325754
0.020943881
0.0070155716
0.0020242821
0.00076574482
0.0015553308
0.010882933
0.088288457
0.098545034
0.091046381
0.089066931
0.088790137
0.089282418
0.090787239
0.095384822
0.10246111
0.11412081
0.13770913
0.17581965
0.25114763
0.37956756
0.51597785
0.60326821
0.62034411
0.57973403
0.50553627
0.41439121
0.31184465
0.20649502
0.11513125
0.053326349
0.020944435
0.0070156925
0.0020243125
0.00076585316
0.00155584
0.010887083
0.088289381
0.098544539
0.091037737
0.089064073
0.088789313
0.089283383
0.090789569
0.095384678
0.10247273
0.11413092
0.1376875
0.17576454
0.25108858
0.37950016
0.51587897
0.60313178
0.62017713
0.5795509
0.50536191
0.41425318
0.3117584
0.20645538
0.11512377
0.053326091
0.020944516
0.0070156138
0.0020242791
0.00076594018
0.0015563127
0.010890978
0.08829032
0.098544012
0.09102894
0.089061262
0.088788498
0.089284357
0.090791906
0.095384486
0.10248415
0.11414048
0.13766536
0.17570956
0.25102926
0.37943135
0.51577785
0.60299345
0.62000942
0.57936874
0.50519007
0.41411969
0.31167822
0.20642189
0.11512102
0.0533285
0.020945811
0.0070159931
0.0020243811
0.00076605654
0.0015567965
0.010894936
0.088291272
0.098543455
0.091019994
0.089058506
0.088787692
0.089285343
0.090794254
0.09538423
0.10249537
0.11414951
0.13764276
0.17565485
0.25097009
0.37936176
0.51567506
0.602853
0.61983959
0.57918452
0.50501618
0.41398383
0.31159566
0.20638605
0.11511645
0.053329793
0.020946538
0.0070161328
0.0020244076
0.00076615897
0.0015572855
0.010898934
0.088292235
0.098542863
0.0910109
0.089055825
0.088786891
0.089286339
0.090796608
0.095383918
0.10250641
0.11415805
0.13761976
0.1756004
0.25091096
0.37929117
0.51557023
0.60271002
0.6196674
0.57899864
0.5048415
0.41384818
0.31151407
0.2063519
0.1151137
0.053332367
0.020947918
0.007016534
0.002024515
0.00076628649
0.0015578171
0.010903252
0.088293212
0.098542234
0.091001675
0.089053205
0.088786099
0.089287344
0.090798969
0.095383559
0.10251728
0.11416614
0.13759641
0.17554626
0.250852
0.37921989
0.51546382
0.60256479
0.61949275
0.57881032
0.50466461
0.41371035
0.3114302
0.2063155
0.11510916
0.053333731
0.020948654
0.0070166621
0.0020245336
0.00076638384
0.0015582973
0.010907218
0.088294207
0.098541573
0.090992339
0.089050599
0.088785318
0.089288362
0.090801344
0.095383148
0.102528
0.1141738
0.13757266
0.17549221
0.25079269
0.37914706
0.51535472
0.60241661
0.61931554
0.57862082
0.50448817
0.41357508
0.31135097
0.20628445
0.11510894
0.053337656
0.020950605
0.0070172646
0.0020246953
0.00076651294
0.0015587921
0.010911272
0.088295218
0.098540888
0.090982918
0.089047983
0.088784542
0.089289392
0.090803734
0.095382693
0.10253859
0.11418107
0.13754857
0.17543833
0.25073338
0.37907332
0.51524376
0.60226516
0.61913481
0.5784275
0.50430788
0.4134357
0.31126786
0.20624985
0.11510594
0.05333992
0.020951746
0.0070175392
0.0020247592
0.00076663101
0.0015593206
0.01091557
0.088296203
0.098540132
0.090973405
0.089045287
0.088783722
0.089290391
0.090806097
0.095382167
0.10254903
0.11418792
0.13752405
0.17538439
0.25067355
0.3789979
0.51513014
0.60211082
0.61895112
0.57823157
0.50412588
0.41329606
0.31118551
0.20621688
0.11510489
0.053343618
0.020953637
0.0070181194
0.0020249208
0.00076678853
0.0015599355
0.010920489
0.0882972
0.09853935
0.090963879
0.089042524
0.088782885
0.089291394
0.090808477
0.095381614
0.10255939
0.11419445
0.13749918
0.17533052
0.25061364
0.37892166
0.51501505
0.60195432
0.61876467
0.57803231
0.50394049
0.41315299
0.31109985
0.20618108
0.11510178
0.053345959
0.02095482
0.0070184071
0.0020249884
0.00076691108
0.0015604819
0.010924926
0.088298249
0.09853859
0.090954418
0.089039695
0.088782059
0.08929244
0.090810923
0.095381073
0.10256974
0.11420072
0.13747397
0.17527665
0.25055339
0.37884414
0.51489789
0.60179501
0.61857545
0.57783107
0.5037544
0.41301141
0.31101785
0.20615011
0.11510295
0.053350904
0.020957253
0.007019188
0.0020252051
0.00076706384
0.0015610303
0.010929359
0.088299313
0.098537811
0.090944999
0.089036725
0.088781199
0.089293499
0.090813417
0.095380501
0.10258007
0.11420671
0.13744834
0.17522273
0.25049298
0.37876563
0.51477902
0.60163348
0.61838279
0.5776253
0.50356308
0.41286395
0.31093006
0.206114
0.11510051
0.053353791
0.020958701
0.0070195735
0.0020253009
0.00076719202
0.0015615759
0.010933778
0.088300386
0.098537006
0.090935607
0.0890336
0.088780304
0.089294592
0.090815977
0.095379929
0.10259045
0.11421249
0.13742198
0.17516857
0.25043206
0.37868573
0.51465806
0.60146947
0.61818744
0.5774167
0.50336919
0.4127147
0.31084123
0.20607792
0.115099
0.053357651
0.020960724
0.0070202079
0.0020254764
0.00076734531
0.0015621646
0.010938526
0.088301473
0.098536167
0.090926194
0.089030349
0.088779384
0.089295724
0.090818613
0.095379415
0.10260092
0.11421812
0.13739512
0.17511388
0.25037076
0.3786048
0.51453524
0.60130372
0.61799028
0.57720571
0.50317247
0.41256194
0.31074847
0.20603791
0.11509439
0.053359535
0.020961753
0.0070204386
0.002025525
0.0007674584
0.0015626919
0.010942859
0.088302574
0.098535282
0.090916687
0.089027041
0.088778465
0.089296901
0.090821327
0.095379017
0.10261153
0.11422354
0.13736787
0.17505874
0.25030862
0.3785221
0.51440994
0.60113591
0.61779152
0.57699479
0.50297726
0.41241268
0.31066086
0.20600358
0.11509438
0.053364195
0.020964115
0.0070211941
0.0020257347
0.00076761637
0.0015632721
0.010947541
0.088303636
0.098534281
0.09090698
0.089023712
0.088777525
0.089298082
0.090824083
0.095378724
0.10262225
0.11422868
0.13733978
0.17500315
0.25024573
0.3784378
0.51428322
0.6009663
0.61759083
0.57678167
0.50277941
0.41226005
0.31056951
0.20596548
0.11509138
0.05336702
0.020965572
0.007021582
0.0020258348
0.00076776004
0.0015638812
0.01095243
0.088304699
0.0985332
0.090897113
0.089020435
0.08877661
0.089299318
0.090826945
0.095378614
0.10263319
0.11423361
0.13731082
0.17494686
0.25018221
0.37835214
0.51415446
0.60079467
0.61738876
0.57656732
0.50258082
0.4121075
0.31047882
0.2059287
0.11509003
0.053371119
0.020967707
0.0070222473
0.00202602
0.00076793052
0.0015645369
0.01095766
0.088305818
0.098532077
0.090887131
0.089017268
0.088775769
0.089300664
0.090829978
0.095378773
0.10264448
0.11423842
0.13728093
0.17488992
0.25011851
0.37826604
0.5140244
0.6006213
0.61718497
0.57635113
0.5023803
0.41195262
0.3103854
0.20588895
0.11508613
0.053373512
0.020968967
0.0070225582
0.0020260943
0.00076806486
0.0015651327
0.010962475
0.088306949
0.098530853
0.090876994
0.089014171
0.088774964
0.089302089
0.090833165
0.09537919
0.10265611
0.11424299
0.13724977
0.17483173
0.25005361
0.37817791
0.51389143
0.60044528
0.61697964
0.57613524
0.50218192
0.41180225
0.31029842
0.2058561
0.11508772
0.053379102
0.020971724
0.0070234481
0.0020263432
0.00076824106
0.0015657583
0.010967478
0.088308082
0.098529517
0.090866706
0.089011117
0.088774195
0.089303601
0.09083653
0.095379921
0.10266814
0.11424727
0.13721709
0.17477215
0.24998787
0.37808858
0.51375647
0.60026664
0.61677156
0.57591662
0.50198075
0.41164858
0.31020798
0.20581985
0.11508661
0.053383036
0.020973647
0.00702399
0.0020264833
0.0007683956
0.0015663844
0.010972489
0.08830922
0.098528062
0.090856282
0.089008085
0.088773471
0.089305208
0.090840094
0.095381046
0.10268064
0.11425121
0.13718258
0.17471081
0.24992105
0.37799784
0.51361923
0.60008518
0.6165608
0.57569598
0.5017785
0.41149498
0.31011839
0.20578515
0.11508736
0.053388377
0.020976316
0.0070248399
0.0020267202
0.00076858076
0.0015670625
0.010977888
0.088310362
0.098526483