/*--------------------------------*- C++ -*----------------------------------*\
| =========                 |                                                 |
| \\      /  F ield         | OpenFOAM: The Open Source CFD Toolbox           |
|  \\    /   O peration     | Version:  v2012                                 |
|   \\  /    A nd           | Website:  www.openfoam.com                      |
|    \\/     M anipulation  |                                                 |
\*---------------------------------------------------------------------------*/
FoamFile
{
    version     2.0;
    format      ascii;
    class       volScalarField;
    location    "50";
    object      Ma;
}
// * * * * * * * * * * * * * * * * * * * * * * * * * * * * * * * * * * * * * //

dimensions      [0 0 0 0 0 0 0];


internalField   nonuniform List<scalar> 
24000
(
0.028694264
0.02919996
0.030198036
0.030306956
0.030317385
0.030313415
0.030294116
0.030113865
0.029987402
0.030006107
0.030009987
0.029683862
0.028575682
0.026665318
0.02441641
0.022216067
0.020231576
0.018484494
0.016904242
0.0153623
0.013747598
0.012041329
0.010298514
0.0085829652
0.0069396661
0.0053915887
0.0039529694
0.0026396654
0.0014701614
0.00046224985
0.02870613
0.029217475
0.030217491
0.030325581
0.030337969
0.030339384
0.030330497
0.030171057
0.03005903
0.030095109
0.030115486
0.029797758
0.028686555
0.026777076
0.024544921
0.022373194
0.020422328
0.018709331
0.017165438
0.015661051
0.0140826
0.012413362
0.010702817
0.0090041659
0.0073528067
0.0057682523
0.0042682917
0.0028756942
0.0016162776
0.00051379421
0.028713397
0.029224955
0.03022524
0.030332362
0.030345159
0.03034652
0.03033723
0.030172355
0.03005367
0.03008167
0.03009009
0.029753983
0.02862193
0.026696417
0.024456179
0.022282034
0.020330827
0.018618881
0.017074475
0.015567777
0.013986267
0.012312171
0.010595664
0.0088927436
0.0072422719
0.0056660309
0.0041816515
0.0028102761
0.0015755947
0.00049942661
0.028719956
0.029232268
0.030232365
0.030337963
0.030350913
0.030352587
0.030343651
0.030177968
0.030059285
0.030086222
0.030091235
0.029747399
0.028606122
0.026673821
0.024431127
0.022258005
0.020309457
0.018600321
0.017057765
0.015551135
0.013968215
0.012292962
0.010576985
0.0088765181
0.0072297155
0.0056573867
0.0041764748
0.0028077621
0.0015748161
0.00049943618
0.028725796
0.02923832
0.030237789
0.030341606
0.030354561
0.03035617
0.030347319
0.030180872
0.030062861
0.030088497
0.030089488
0.029737903
0.028588837
0.026651187
0.024405966
0.022232531
0.020284632
0.018576124
0.017033483
0.01552573
0.013941076
0.01226457
0.010548573
0.0088495222
0.0072054333
0.0056368561
0.0041603621
0.0027963717
0.001568135
0.00049721314
0.02873083
0.029243404
0.030242021
0.030344034
0.030356983
0.030358497
0.030349859
0.030184314
0.03006816
0.030093083
0.030090322
0.029731601
0.02857653
0.026635451
0.024388887
0.02221563
0.020268633
0.018561037
0.017018793
0.015510588
0.013924881
0.012247562
0.010531575
0.0088335026
0.0071912107
0.0056250043
0.0041512082
0.0027900154
0.0015644856
0.00049603288
0.028735118
0.029247656
0.030245306
0.030345594
0.030358536
0.030359987
0.030351633
0.030188274
0.030074726
0.030099142
0.030092417
0.029726563
0.028566369
0.026622978
0.024375667
0.022202747
0.020256589
0.018549851
0.01700807
0.0154997
0.013913381
0.012235528
0.010519505
0.0088220072
0.0071808491
0.0056162218
0.0041443123
0.0027851559
0.0015616602
0.0004951081
0.02873874
0.029251233
0.030247877
0.030346566
0.030359514
0.03036096
0.030352959
0.030192904
0.030082556
0.030106632
0.030095698
0.029722601
0.028557939
0.026613034
0.02436545
0.022193009
0.020247692
0.01854181
0.017000591
0.015492315
0.013905717
0.01222758
0.010511548
0.008814387
0.0071739128
0.005610273
0.0041395885
0.002781799
0.0015597004
0.00049446672
0.028741791
0.02925427
0.030249917
0.030347148
0.030360101
0.030361596
0.030353999
0.030198133
0.030091412
0.030115254
0.030099826
0.029719381
0.028550712
0.026604845
0.024357307
0.022185411
0.020240906
0.018535835
0.016995221
0.015487199
0.013900561
0.012222347
0.010506364
0.0088094259
0.0071693637
0.0056063244
0.0041364125
0.0027795182
0.0015583603
0.00049402728
0.02874437
0.029256896
0.030251582
0.030347485
0.030360441
0.030362012
0.030354856
0.030203856
0.030101044
0.030124717
0.030104526
0.02971671
0.028544391
0.026597959
0.024350677
0.022179359
0.020235606
0.018531295
0.016991299
0.015483636
0.01389713
0.012219003
0.010503157
0.0088064234
0.0071666396
0.0056039648
0.0041345102
0.0027781479
0.0015575551
0.00049376448
0.028746571
0.029259216
0.030252994
0.030347683
0.030360638
0.030362302
0.030355622
0.03020994
0.030111186
0.030134722
0.030109819
0.029714419
0.028538783
0.026592075
0.024345177
0.022174434
0.02023136
0.018527738
0.016988338
0.015481089
0.013894822
0.01221688
0.010501232
0.008804712
0.0071651457
0.0056027002
0.0041335025
0.0027774272
0.0015571355
0.00049362977
0.028748481
0.029261326
0.030254257
0.03034783
0.030360782
0.030362536
0.030356353
0.030216284
0.030121583
0.03014499
0.030114971
0.029712419
0.028533791
0.026586996
0.024340558
0.022170365
0.020227887
0.018524874
0.01698603
0.015479214
0.013893238
0.012215526
0.010500106
0.0088038117
0.0071644476
0.0056021716
0.0041331187
0.002777173
0.0015569983
0.00049359006
0.028750177
0.029263286
0.030255453
0.030348031
0.030360945
0.030362781
0.030357096
0.03022278
0.030132015
0.030155274
0.03012008
0.029710674
0.028529362
0.026582594
0.024336639
0.022166953
0.020224986
0.018522489
0.016984145
0.015477746
0.01389206
0.012214554
0.01049932
0.0088032116
0.0071640221
0.0056018947
0.004132957
0.0027770929
0.0015569701
0.00049358772
0.028751729
0.029265166
0.030256663
0.030348378
0.030361199
0.030363094
0.03035789
0.030229326
0.030142297
0.030165372
0.030125028
0.029709185
0.028525497
0.026578824
0.024333338
0.02216411
0.020222575
0.018520511
0.016982605
0.0154766
0.013891193
0.01221385
0.010498718
0.0088026986
0.0071636
0.0056015671
0.0041327226
0.0027769442
0.0015568945
0.00049356768
0.028753197
0.029267023
0.030257945
0.030348865
0.030361574
0.030363519
0.030358751
0.030235832
0.030152285
0.03017512
0.030129729
0.029707975
0.028522226
0.026575679
0.024330627
0.022161808
0.020220639
0.018518945
0.01698143
0.015475813
0.013890699
0.01221351
0.010498423
0.0088024022
0.0071632976
0.0056012806
0.0041324799
0.0027767674
0.0015567937
0.00049353751
0.028754643
0.029268913
0.030259352
0.030349531
0.030362121
0.030364104
0.030359786
0.030242224
0.030161861
0.0301844
0.030134139
0.029707039
0.028519538
0.026573119
0.024328447
0.022159985
0.020219132
0.018517763
0.016980642
0.01547542
0.013890621
0.012213608
0.010498582
0.0088025508
0.0071634031
0.0056013392
0.0041325051
0.0027767773
0.0015568015
0.00049354353
0.028756108
0.029270869
0.030260907
0.030350397
0.030362863
0.030364859
0.030360948
0.030248425
0.030170915
0.030193096
0.030138177
0.029706328
0.028517358
0.026571048
0.024326689
0.022158531
0.020217946
0.01851688
0.016980102
0.015475252
0.013890766
0.012213939
0.010498983
0.0088029448
0.0071637436
0.0056016087
0.0041327049
0.0027769168
0.0015568884
0.00049357672
0.028757604
0.029272892
0.0302626
0.030351452
0.030363788
0.030365782
0.030362224
0.030254357
0.030179364
0.030201122
0.030141804
0.029705795
0.028515613
0.026569392
0.02432529
0.022157389
0.020217058
0.018516225
0.016979726
0.015475201
0.013891003
0.012214353
0.010499469
0.008803424
0.007164167
0.0056019521
0.0041329635
0.002777097
0.0015569986
0.00049361752
0.02875915
0.029275002
0.030264438
0.0303527
0.030364904
0.030366878
0.030363629
0.030259984
0.030187184
0.030208466
0.030145029
0.029705421
0.02851426
0.026568112
0.024324219
0.022156564
0.020216433
0.018515781
0.016979501
0.015475241
0.013891282
0.012214783
0.01049996
0.0088039133
0.0071646103
0.0056023244
0.0041332553
0.0027773078
0.0015571301
0.00049366636
0.028760778
0.029277213
0.030266426
0.030354136
0.030366211
0.03036815
0.030365169
0.030265307
0.030194383
0.030215153
0.030147883
0.029705188
0.028513251
0.026567169
0.024323471
0.022156041
0.020216081
0.01851557
0.016979453
0.015475391
0.013891614
0.012215226
0.010500446
0.008804394
0.0071650522
0.0056027051
0.0041335619
0.0027775343
0.0015572734
0.00049371994
0.028762501
0.029279531
0.030268549
0.030355745
0.030367693
0.030369584
0.030366831
0.030270329
0.030201003
0.030221228
0.030150386
0.029705065
0.028512533
0.026566518
0.024323021
0.022155786
0.020215986
0.01851559
0.016979584
0.015475646
0.013891971
0.01221563
0.010500847
0.0088047662
0.0071653791
0.0056029798
0.0041337824
0.0027777
0.0015573818
0.00049376226
0.028764327
0.02928196
0.030270801
0.03035751
0.030369325
0.030371167
0.030368609
0.03027507
0.030207104
0.030226763
0.030152608
0.029705048
0.028512065
0.026566151
0.024322833
0.022155807
0.020216168
0.018515883
0.016979962
0.015476093
0.013892449
0.01221609
0.010501262
0.0088051273
0.007165685
0.0056032327
0.0041339838
0.0027778512
0.0015574813
0.00049380166
0.02876626
0.029284498
0.030273172
0.030359412
0.03037109
0.030372882
0.030370491
0.030279558
0.030212751
0.030231834
0.0301546
0.02970513
0.028511816
0.02656602
0.024322882
0.022156075
0.020216616
0.018516449
0.016980597
0.015476751
0.013893066
0.012216616
0.010501686
0.0088054598
0.0071659433
0.0056034341
0.0041341414
0.0027779714
0.0015575635
0.00049383571
0.028768301
0.029287129
0.030275649
0.030361425
0.030372973
0.030374707
0.030372465
0.030283825
0.030218009
0.030236519
0.030156427
0.029705307
0.028511761
0.026566085
0.024323142
0.022156575
0.020217321
0.018517291
0.016981513
0.015477663
0.013893884
0.012217284
0.010502202
0.0088058504
0.0071662379
0.0056036593
0.0041343148
0.0027781021
0.001557652
0.00049387223
0.028770447
0.029289862
0.03027821
0.030363528
0.030374954
0.030376625
0.030374514
0.030287902
0.030222939
0.030240879
0.030158131
0.029705563
0.028511868
0.026566307
0.024323569
0.022157267
0.020218235
0.018518361
0.016982663
0.015478791
0.013894867
0.012218048
0.010502751
0.0088062252
0.0071664888
0.0056038322
0.0041344419
0.0027781997
0.0015577222
0.00049390311
0.02877269
0.029292694
0.030280852
0.030365711
0.030377015
0.030378626
0.030376631
0.030291816
0.030227598
0.030244949
0.030159746
0.029705895
0.028512097
0.026566656
0.024324144
0.022158129
0.020219343
0.018519646
0.016984046
0.015480152
0.013896056
0.012218966
0.010503392
0.0088066427
0.0071667479
0.0056039941
0.0041345496
0.0027782779
0.0015577786
0.00049392896
0.028775022
0.029295614
0.030283565
0.030367954
0.03037914
0.030380695
0.030378806
0.030295596
0.030232036
0.030248809
0.030161291
0.029706303
0.028512437
0.02656712
0.02432485
0.022159143
0.020220623
0.018521121
0.016985635
0.015481723
0.013897433
0.012220022
0.010504106
0.0088070677
0.007166966
0.0056040902
0.0041345902
0.0027783026
0.0015578025
0.00049394403
0.028777444
0.029298624
0.030286343
0.030370248
0.030381319
0.030382816
0.030381032
0.03029927
0.030236294
0.030252504
0.030162807
0.029706783
0.02851288
0.026567691
0.024325683
0.022160306
0.020222072
0.018522786
0.016987434
0.015483521
0.013899042
0.012221292
0.010504995
0.008807616
0.0071672556
0.0056042175
0.0041346359
0.0027783205
0.0015578181
0.00049395555
0.028779983
0.02930175
0.030289213
0.03037262
0.030383572
0.030385008
0.030383322
0.030302887
0.03024043
0.030256094
0.03016432
0.029707356
0.028513429
0.026568371
0.024326639
0.022161609
0.020223678
0.018524623
0.01698942
0.01548552
0.013900862
0.012222769
0.010506065
0.0088083012
0.007167632
0.0056043876
0.004134695
0.0027783377
0.00155783
0.00049396522
0.028782618
0.029304974
0.030292166
0.030375059
0.030385889
0.030387271
0.030385677
0.030306461
0.030244468
0.030259601
0.030165854
0.029708021
0.028514081
0.026569163
0.024327727
0.022163062
0.020225451
0.018526642
0.016991608
0.015487747
0.013902936
0.012224516
0.010507408
0.0088092478
0.0071682437
0.0056047561
0.0041349078
0.0027784612
0.0015579026
0.00049399452
0.028785306
0.029308249
0.03029515
0.030377511
0.030388223
0.030389552
0.030388046
0.03030995
0.030248381
0.030263006
0.030167381
0.029708744
0.028514794
0.02657002
0.024328889
0.022164599
0.020227315
0.018528757
0.016993899
0.015490087
0.013905133
0.012226391
0.01050887
0.0088102906
0.0071689229
0.0056051635
0.0041351387
0.0027785908
0.0015579762
0.00049402361
0.028788052
0.029311587
0.03029817
0.030379981
0.030390582
0.030391858
0.030390436
0.030313376
0.030252191
0.03026633
0.030168909
0.02970952
0.028515561
0.026570934
0.024330117
0.022166206
0.020229252
0.018530952
0.016996276
0.015492526
0.013907451
0.012228408
0.010510489
0.0088114934
0.0071697509
0.0056056984
0.0041354682
0.0027787883
0.0015580883
0.00049406514
0.028790876
0.029314998
0.030301251
0.030382496
0.030392979
0.030394206
0.030392865
0.030316774
0.03025594
0.030269591
0.030170442
0.029710359
0.028516391
0.026571912
0.024331412
0.02216788
0.02023125
0.018533201
0.016998705
0.015495019
0.013909829
0.012230497
0.010512186
0.0088127758
0.0071706542
0.0056062988
0.0041358513
0.0027790249
0.001558224
0.00049411457
0.028793769
0.029318468
0.030304388
0.030385055
0.030395405
0.030396593
0.030395328
0.030320147
0.030259629
0.030272787
0.030171994
0.029711264
0.028517283
0.026572961
0.024332785
0.022169628
0.020233317
0.018535515
0.017001201
0.015497588
0.013912299
0.012232688
0.010513996
0.008814176
0.0071716739
0.0056070054
0.00413632
0.0027793217
0.0015583938
0.00049417471
0.028796729
0.029322006
0.030307571
0.03038765
0.03039787
0.030399013
0.030397823
0.030323501
0.030263273
0.030275953
0.030173575
0.029712229
0.028518242
0.026574083
0.024334233
0.022171449
0.020235448
0.018537881
0.017003742
0.0155002
0.013914808
0.012234916
0.010515839
0.008815607
0.0071727221
0.0056077379
0.0041368128
0.0027796383
0.0015585764
0.00049423934
0.028799749
0.02932561
0.030310802
0.030390294
0.030400377
0.030401469
0.030400352
0.030326845
0.030266887
0.030279098
0.030175203
0.029713261
0.02851927
0.026575278
0.024335761
0.022173348
0.020237655
0.01854032
0.017006354
0.015502885
0.013917398
0.012237234
0.01051778
0.0088171408
0.0071738719
0.0056085636
0.0041373815
0.0027800094
0.001558791
0.00049431464
0.028802829
0.029329279
0.030314085
0.030392999
0.030402926
0.030403962
0.030402916
0.030330176
0.03027048
0.030282236
0.03017688
0.029714352
0.028520357
0.026576531
0.024337345
0.022175298
0.020239905
0.018542791
0.017008986
0.015505579
0.013919987
0.012239541
0.010519699
0.0088186415
0.0071749833
0.0056093516
0.0041379208
0.0027803613
0.0015589956
0.00049438681
0.028805972
0.029333014
0.030317423
0.030395762
0.03040552
0.030406497
0.030405519
0.030333508
0.030274062
0.030285375
0.030178615
0.029715514
0.028521509
0.026577852
0.024339001
0.022177321
0.020242227
0.018545335
0.017011693
0.015508352
0.013922658
0.012241933
0.010521703
0.0088202263
0.0071761715
0.0056102044
0.0041385064
0.0027807413
0.0015592137
0.00049446259
0.028809174
0.029336809
0.030320816
0.030398574
0.030408158
0.030409064
0.030408155
0.030336852
0.030277644
0.030288527
0.030180405
0.029716752
0.028522731
0.026579242
0.024340729
0.022179419
0.020244621
0.018547949
0.017014464
0.015511181
0.013925376
0.012244359
0.01052373
0.0088218232
0.0071773661
0.0056110608
0.0041390976
0.0027811282
0.0015594375
0.00049454072
0.028812424
0.029340669
0.030324268
0.030401435
0.030410836
0.030411675
0.030410832
0.030340212
0.030281223
0.030291685
0.030182253
0.029718067
0.028524021
0.026580701
0.02434253
0.022181593
0.020247099
0.01855065
0.017017326
0.015514104
0.013928192
0.012246889
0.010525866
0.008823532
0.0071786678
0.0056120128
0.0041397648
0.0027815686
0.0015596925
0.00049462925
0.028815735
0.029344597
0.030327772
0.030404339
0.030413561
0.030414333
0.030413554
0.030343585
0.030284807
0.030294841
0.030184153
0.029719449
0.028525365
0.026582209
0.024344377
0.022183812
0.020249618
0.01855339
0.017020219
0.015517045
0.013931009
0.012249402
0.010527969
0.0088251927
0.0071799147
0.0056129114
0.0041403896
0.0027819808
0.0015599324
0.00049471315
0.028819104
0.029348586
0.030331331
0.030407285
0.030416334
0.030417038
0.030416322
0.030346972
0.030288406
0.030298023
0.030186118
0.029720898
0.028526769
0.026583777
0.024346289
0.0221861
0.020252209
0.018556207
0.017023199
0.015520081
0.013933924
0.012252012
0.010530164
0.0088269419
0.0071812414
0.0056138771
0.0041410622
0.0027824217
0.0015601861
0.00049480078
0.028822531
0.029352632
0.030334945
0.030410275
0.030419148
0.03041979
0.030419135
0.030350385
0.030292016
0.030301237
0.030188153
0.029722412
0.028528238
0.026585408
0.024348264
0.022188451
0.020254864
0.018559089
0.017026242
0.015523173
0.013936882
0.012254644
0.010532361
0.0088286757
0.0071825437
0.0056148163
0.004141715
0.0027828512
0.0015604349
0.00049488725
0.028826019
0.029356746
0.030338617
0.030413314
0.030422002
0.030422589
0.030421996
0.030353832
0.030295656
0.030304494
0.03019026
0.029723994
0.028529772
0.026587104
0.024350308
0.022190876
0.020257599
0.018562058
0.017029378
0.015526364
0.013939942
0.012257384
0.010534668
0.0088305186
0.0071839478
0.0056158444
0.0041424362
0.0027833274
0.0015607102
0.00049498256
0.028829562
0.029360928
0.030342333
0.030416385
0.030424905
0.030425433
0.030424897
0.030357311
0.030299322
0.030307786
0.030192428
0.029725636
0.028531358
0.026588847
0.024352396
0.02219334
0.02026037
0.018565059
0.017032541
0.015529574
0.013943007
0.012260108
0.010536938
0.0088323074
0.007185288
0.0056168088
0.0041431061
0.0027837688
0.0015609668
0.00049507204
0.02883316
0.029365176
0.030346105
0.030419502
0.030427855
0.030428325
0.030427848
0.030360817
0.030303018
0.030311113
0.030194643
0.029727343
0.028533
0.026590646
0.024354543
0.022195867
0.020263207
0.018568133
0.017035787
0.015532878
0.013946173
0.012262935
0.01053931
0.0088341902
0.0071867111
0.005617841
0.0041438225
0.0027842372
0.0015612355
0.00049516463
0.028836817
0.029369489
0.030349935
0.030422666
0.030430854
0.030431267
0.030430848
0.030364357
0.03030675
0.030314456
0.030196917
0.029729121
0.028534705
0.026592508
0.024356753
0.022198456
0.020266105
0.018571268
0.017039093
0.015536239
0.013949386
0.012265794
0.010541694
0.0088360714
0.007188123
0.0056188579
0.0041445279
0.0027847
0.0015615027
0.00049525714
0.028840531
0.029373868
0.030353823
0.030425877
0.030433903
0.03043425
0.030433891
0.030367937
0.030310505
0.030317832
0.030199258
0.029730969
0.028536474
0.026594435
0.024359028
0.022201113
0.020269075
0.01857448
0.017042485
0.015539693
0.013952704
0.012268766
0.010544199
0.0088380729
0.0071896486
0.0056199756
0.0041453127
0.0027852184
0.0015618022
0.00049536049
0.028844295
0.029378315
0.03035777
0.030429136
0.030436995
0.03043728
0.030436977
0.030371559
0.030314293
0.030321252
0.030201665
0.029732882
0.028538298
0.026596412
0.024361346
0.022203808
0.020272077
0.018577717
0.017045896
0.01554316
0.013956021
0.012271723
0.010546671
0.008840026
0.0071911166
0.005621035
0.0041460501
0.0027857045
0.0015620841
0.00049545833
0.02884812
0.029382829
0.030361769
0.030432438
0.030440139
0.030440362
0.030440116
0.030375217
0.030318115
0.030324718
0.030204141
0.029734861
0.028540183
0.026598449
0.024363728
0.022206568
0.020275147
0.018581027
0.017049387
0.01554672
0.013959443
0.012274789
0.010549251
0.0088420819
0.0071926768
0.0056221715
0.0041468421
0.0027862235
0.0015623818
0.00049556054
0.028852004
0.029387401
0.030365825
0.030435788
0.030443333
0.030443495
0.030443305
0.030378904
0.030321971
0.030328233
0.03020668
0.029736896
0.028542127
0.026600543
0.024366165
0.022209382
0.020278267
0.018584384
0.01705292
0.015550316
0.013962895
0.012277871
0.010551831
0.0088441258
0.0071942178
0.0056232868
0.0041476191
0.0027867347
0.0015626769
0.00049566233
0.028855948
0.029392043
0.030369941
0.030439186
0.030446571
0.03044668
0.030446546
0.030382633
0.03032587
0.030331795
0.030209266
0.029738991
0.028544132
0.026602696
0.024368662
0.022212258
0.02028145
0.018587805
0.017056521
0.015553987
0.013966429
0.012281047
0.010554515
0.0088462761
0.00719586
0.0056244915
0.0041484648
0.0027872927
0.0015629984
0.0004957728
0.02885995
0.029396754
0.030374108
0.030442632
0.030449855
0.030449911
0.030449832
0.03038641
0.03032981
0.030335386
0.030211905
0.029741144
0.028546188
0.026604894
0.0243712
0.022215168
0.020284659
0.018591245
0.01706013
0.015557653
0.013969945
0.012284191
0.010557151
0.0088483644
0.0071974329
0.0056256281
0.0041492561
0.0027878136
0.0015632996
0.00049587694
0.028864006
0.029401532
0.030378325
0.03044612
0.030453191
0.030453193
0.030453166
0.030390229
0.030333795
0.030339001
0.030214605
0.029743359
0.028548303
0.026607149
0.024373797
0.022218137
0.02028793
0.018594749
0.017063808
0.015561395
0.013973548
0.012287427
0.010559883
0.0088505478
0.0071990943
0.0056268406
0.0041501019
0.0027883678
0.0015636169
0.00049598548
0.028868119
0.02940637
0.030382599
0.030449664
0.03045658
0.030456526
0.030456553
0.030394083
0.030337816
0.030342667
0.030217373
0.029745643
0.02855048
0.026609464
0.024376452
0.022221162
0.020291255
0.018598303
0.017067529
0.015565173
0.013977172
0.012290671
0.010562609
0.0088527153
0.0072007351
0.0056280323
0.0041509339
0.0027889154
0.0015639325
0.00049609395
0.028872287
0.029411273
0.03038693
0.030453269
0.030460023
0.030459908
0.030459989
0.030397983
0.030341869
0.030346385
0.030220207
0.029747993
0.028552718
0.026611839
0.024379169
0.02222425
0.020294644
0.018601925
0.017071322
0.015569025
0.013980876
0.012294004
0.010565433
0.0088549858
0.0072024772
0.0056293167
0.0041518403
0.0027895157
0.0015642789
0.00049621282
0.028876501
0.029416239
0.030391317
0.03045694
0.030463512
0.030463323
0.030463456
0.030401925
0.03034596
0.030350152
0.0302231
0.029750398
0.028555001
0.026614255
0.024381919
0.022227365
0.020298055
0.018605561
0.017075119
0.015572867
0.013984554
0.012297292
0.010568194
0.0088571813
0.0072041391
0.0056305247
0.0041526859
0.0027900745
0.0015646024
0.00049632444
0.028880772
0.02942126
0.030395751
0.030460673
0.03046705
0.030466787
0.030466969
0.030405909
0.030350089
0.030353969
0.030226043
0.029752861
0.028557338
0.026616726
0.024384726
0.022230537
0.020301525
0.01860926
0.017078985
0.015576785
0.013988312
0.012300659
0.010571034
0.0088594511
0.0072058685
0.0056317898
0.0041535711
0.0027906562
0.001564936
0.00049643849
0.028885099
0.029426338
0.030400238
0.030464471
0.030470639
0.030470297
0.030470531
0.030409922
0.030354268
0.030357822
0.030229036
0.029755383
0.028559738
0.026619257
0.024387591
0.022233765
0.02030505
0.018613011
0.017082898
0.015580743
0.013992096
0.012304036
0.010573865
0.0088616999
0.0072075714
0.0056330284
0.0041544378
0.0027912278
0.0015652657
0.00049655175
0.028889482
0.029431481
0.030404778
0.030468322
0.030474273
0.030473857
0.030474142
0.030413983
0.030358498
0.030361702
0.030232088
0.029757964
0.028562202
0.026621852
0.024390519
0.022237057
0.020308641
0.018616833
0.017086888
0.015584781
0.013995965
0.012307503
0.010576792
0.0088640457
0.0072093661
0.0056343487
0.0041553682
0.0027918436
0.0015656208
0.00049667354
0.028893919
0.029436693
0.030409366
0.030472222
0.030477949
0.030477462
0.030477798
0.030418095
0.030362778
0.030365634
0.030235201
0.029760603
0.02856472
0.026624495
0.02439349
0.022240384
0.020312261
0.018620677
0.017090892
0.015588823
0.013999822
0.01231094
0.010579668
0.0088663238
0.0072110838
0.0056355926
0.0041562356
0.0027924151
0.0015659509
0.00049678726
0.028898413
0.029441972
0.030414003
0.03047616
0.030481678
0.030481119
0.030481505
0.030422257
0.030367097
0.030369622
0.030238379
0.029763305
0.028567302
0.026627203
0.024396526
0.022243777
0.020315947
0.018624589
0.017094972
0.015592948
0.01400377
0.01231447
0.010582635
0.0088686867
0.0072128769
0.0056368988
0.0041571465
0.0027930122
0.0015662929
0.00049690408
0.028902967
0.029447315
0.030418696
0.030480147
0.03048546
0.03048483
0.030485267
0.030426465
0.030371463
0.030373673
0.030241627
0.029766078
0.028569952
0.02662998
0.024399627
0.022247233
0.020319694
0.01862856
0.017099106
0.015597123
0.014007758
0.012318026
0.010585614
0.008871051
0.0072146643
0.0056381962
0.0041580518
0.0027936075
0.0015666353
0.00049702144
0.028907571
0.029452727
0.030423443
0.030484181
0.030489293
0.03048859
0.030489078
0.030430725
0.030375873
0.030377784
0.030244936
0.029768919
0.02857267
0.026632824
0.024402796
0.022250759
0.020323511
0.018632603
0.017103317
0.01560138
0.014011836
0.012321679
0.010588697
0.0088735209
0.0072165528
0.0056395844
0.0041590298
0.0027942547
0.0015670083
0.00049714914
0.028912226
0.029458209
0.030428242
0.030488262
0.030493167
0.030492387
0.030492926
0.030435037
0.030380337
0.030381927
0.030248288
0.029771818
0.028575442
0.026635717
0.024406008
0.022254322
0.020327358
0.018636667
0.017107539
0.015605638
0.014015902
0.012325307
0.010591738
0.0088759354
0.0072183791
0.0056409118
0.0041599585
0.0027948679
0.0015673625
0.00049727085
0.028916941
0.029463742
0.030433087
0.03049238
0.030497091
0.030496239
0.030496827
0.030439393
0.030384859
0.030386106
0.030251693
0.02977478
0.028578277
0.026638675
0.024409286
0.022257951
0.020331272
0.018640798
0.017111834
0.015609977
0.014020053
0.01232902
0.010594862
0.0088784253
0.0072202713
0.0056422927
0.0041609233
0.0027955011
0.0015677251
0.00049739445
0.028921716
0.029469347
0.030437987
0.030496546
0.030501068
0.030500144
0.030500784
0.030443794
0.030389443
0.030390349
0.030255171
0.029777809
0.028581183
0.026641702
0.024412631
0.022261646
0.020335247
0.018644988
0.01711618
0.015614359
0.014024238
0.012332752
0.010597989
0.008880908
0.0072221496
0.0056436578
0.0041618774
0.0027961294
0.0015680866
0.0004975181
0.028926548
0.029475022
0.030442941
0.03050076
0.030505087
0.030504101
0.030504791
0.030448252
0.030394084
0.030394659
0.03025872
0.029780901
0.028584159
0.026644801
0.02441605
0.022265416
0.0203393
0.018649255
0.017120605
0.015618824
0.014028512
0.012336582
0.01060122
0.0088834954
0.0072241264
0.0056451094
0.0041628983
0.0027968036
0.0015684742
0.00049765047
0.02893143
0.029480763
0.030447931
0.030505011
0.030509148
0.030508099
0.030508842
0.030452763
0.030398764
0.030399033
0.030262333
0.029784051
0.02858719
0.026647952
0.024419515
0.022269226
0.020343386
0.018653548
0.017125045
0.015623289
0.01403277
0.012340379
0.0106044
0.0088860139
0.0072260244
0.0056464826
0.0041638547
0.0027974325
0.0015688364
0.00049777464
0.028936368
0.02948656
0.030452971
0.030509298
0.030513258
0.030512147
0.030512942
0.030457317
0.030403494
0.030403465
0.030266012
0.029787266
0.028590287
0.02665117
0.024423049
0.022273108
0.020347548
0.01865792
0.017129569
0.015627844
0.014037125
0.012344276
0.010607682
0.0088886305
0.0072280103
0.0056479276
0.0041648598
0.0027980888
0.0015692103
0.00049790152
0.028941376
0.029492441
0.03045808
0.03051365
0.030517434
0.030516264
0.030517113
0.030461944
0.030408302
0.030407956
0.030269756
0.029790564
0.028593468
0.02665447
0.024426665
0.022277072
0.020351791
0.01866237
0.017134165
0.015632464
0.014041532
0.012348212
0.01061099
0.0088912673
0.0072300129
0.0056493873
0.0041658814
0.0027987612
0.0015695962
0.00049803296
0.028946437
0.0294984
0.030463254
0.030518068
0.03052167
0.030520431
0.030521331
0.03046664
0.030413188
0.030412508
0.030273563
0.029793938
0.028596727
0.026657852
0.024430365
0.022281121
0.020356122
0.018666913
0.017138858
0.015637181
0.01404604
0.012352258
0.010614421
0.0088940343
0.0072321461
0.0056509689
0.0041670036
0.0027995068
0.0015700258
0.00049817929
0.028951539
0.029504392
0.030468456
0.030522519
0.03052594
0.03052463
0.030525584
0.030471374
0.030418123
0.030417108
0.030277418
0.029797357
0.02860003
0.026661272
0.024434097
0.022285194
0.020360471
0.018671467
0.01714355
0.01564188
0.014050507
0.012356237
0.01061776
0.008896691
0.007234162
0.0056524393
0.004168036
0.00280019
0.00157042
0.00049831418
0.028956687
0.029510436
0.030473703
0.030527016
0.030530256
0.030528876
0.030529882
0.03047614
0.030423115
0.030421769
0.03028133
0.029800832
0.028603389
0.026664749
0.024437886
0.022289326
0.020364884
0.01867609
0.01714832
0.015646664
0.014055062
0.0123603
0.010621176
0.0088994182
0.0072362392
0.0056539592
0.0041690998
0.0028008883
0.0015708191
0.00049844954
0.028961889
0.029516544
0.030479008
0.030531581
0.030534627
0.030533175
0.030534232
0.030480969
0.030428156
0.030426511
0.030285319
0.029804382
0.028606827
0.026668303
0.024441749
0.02229353
0.020369366
0.018680782
0.017153155
0.015651505
0.014059656
0.012364381
0.010624586
0.0089021212
0.007238283
0.0056554446
0.0041701385
0.0028015724
0.0015712121
0.00049858353
0.028967132
0.029522706
0.030484353
0.030536208
0.03053903
0.030537508
0.030538618
0.03048585
0.030433251
0.030431307
0.03028938
0.029807997
0.028610342
0.026671936
0.024445692
0.022297816
0.020373934
0.018685565
0.01715809
0.015656452
0.014064365
0.012368583
0.010628124
0.0089049496
0.0072404417
0.0056570285
0.0041712513
0.0028023062
0.001571633
0.00049872671
0.028972426
0.029528915
0.030489739
0.030540878
0.030543483
0.030541882
0.030543045
0.030490771
0.030438403
0.030436133
0.030293477
0.02981166
0.028613911
0.026675622
0.024449681
0.022302141
0.020378534
0.018690375
0.017163044
0.015661408
0.014069067
0.012372761
0.010631615
0.0089077113
0.0072425202
0.0056585295
0.0041722944
0.0028029901
0.0015720254
0.0004988606
0.028977789
0.029535202
0.030495195
0.030545628
0.030548
0.03054632
0.030547537
0.030495759
0.030443632
0.030441023
0.030297616
0.029815381
0.028617546
0.026679374
0.024453737
0.022306534
0.020383207
0.018695263
0.017168086
0.015666466
0.014073885
0.012377064
0.010635239
0.0089106078
0.0072447271
0.0056601429
0.0041734214
0.0028037279
0.0015724456
0.00049900255
0.028983203
0.029541566
0.030500715
0.030550445
0.030552579
0.03055081
0.030552076
0.030500817
0.030448941
0.030445992
0.030301828
0.029819177
0.02862126
0.026683205
0.024457866
0.022310996
0.020387944
0.018700212
0.017173184
0.015671575
0.014078742
0.012381391
0.010638873
0.008913505
0.0072469316
0.0056617543
0.0041745529
0.0028044744
0.0015728738
0.00049914792
0.028988653
0.029547962
0.030506258
0.030555292
0.030557186
0.030555327
0.030556648
0.030505909
0.030454296
0.030451018
0.030306089
0.029823029
0.028625033
0.026687099
0.024462057
0.022315519
0.020392743
0.018705225
0.017178351
0.015676756
0.014083679
0.012385807
0.010642603
0.0089165016
0.0072492311
0.005663451
0.0041757508
0.0028052667
0.0015733283