/*--------------------------------*- C++ -*----------------------------------*\
| =========                 |                                                 |
| \\      /  F ield         | OpenFOAM: The Open Source CFD Toolbox           |
|  \\    /   O peration     | Version:  v2012                                 |
|   \\  /    A nd           | Website:  www.openfoam.com                      |
|    \\/     M anipulation  |                                                 |
\*---------------------------------------------------------------------------*/
FoamFile
{
    version     2.0;
    format      ascii;
    class       volScalarField;
    location    "50";
    object      nut;
}
// * * * * * * * * * * * * * * * * * * * * * * * * * * * * * * * * * * * * * //

dimensions      [0 2 -1 0 0 0 0];


internalField   nonuniform List<scalar> 
24000
(
7.2195297e-05
4.2259314e-06
1.1671856e-05
4.8320307e-05
7.6657188e-05
5.225423e-05
1.7270797e-05
4.5153207e-06
4.6147724e-06
4.159363e-06
2.3560791e-06
1.6288166e-06
1.4262843e-06
1.4123676e-06
1.419248e-06
1.3764129e-06
1.2559018e-06
1.0470192e-06
7.5270624e-07
4.3711675e-07
2.1693993e-07
9.816579e-08
3.7477575e-08
1.1051804e-08
2.5468948e-09
4.4688781e-10
5.8378885e-11
7.7525277e-12
3.9917997e-12
4.0506249e-12
7.2216791e-05
4.2004003e-06
1.1639226e-05
7.2868426e-05
7.668038e-05
7.0628055e-05
3.67343e-05
4.968479e-06
5.0751907e-06
4.6399812e-06
2.527279e-06
1.6920849e-06
1.4578266e-06
1.4434931e-06
1.4491189e-06
1.4056016e-06
1.2848527e-06
1.0749713e-06
7.7521308e-07
4.4894098e-07
2.2122907e-07
9.9087974e-08
3.6669455e-08
1.0731761e-08
2.4669362e-09
4.3362073e-10
5.7381855e-11
8.3569269e-12
4.7940446e-12
4.889235e-12
7.2218762e-05
4.1978147e-06
1.1725808e-05
7.5060003e-05
7.6758259e-05
7.0788694e-05
3.4003413e-05
4.7341755e-06
4.726046e-06
4.2662229e-06
2.407427e-06
1.649615e-06
1.4367409e-06
1.4274721e-06
1.4359455e-06
1.3932004e-06
1.2727534e-06
1.064307e-06
7.6781515e-07
4.4606903e-07
2.2095978e-07
9.956008e-08
3.7516387e-08
1.1012647e-08
2.529941e-09
4.4340455e-10
5.8270485e-11
8.2137096e-12
4.5591872e-12
4.6433576e-12
7.222084e-05
4.193942e-06
1.1887478e-05
7.7388014e-05
7.6839694e-05
7.0942742e-05
3.4167945e-05
4.7047243e-06
4.6770362e-06
4.1796548e-06
2.3798883e-06
1.6443772e-06
1.4369437e-06
1.4296526e-06
1.4391265e-06
1.3965652e-06
1.275532e-06
1.0656525e-06
7.6712149e-07
4.4417373e-07
2.1950433e-07
9.8762878e-08
3.7092852e-08
1.0867442e-08
2.4930279e-09
4.3663842e-10
5.7415633e-11
8.1448268e-12
4.5525086e-12
4.637709e-12
7.2222686e-05
4.1952382e-06
1.2102062e-05
8.0297443e-05
7.6920453e-05
7.1098902e-05
3.3196367e-05
4.6791993e-06
4.6365836e-06
4.0904354e-06
2.3486684e-06
1.6363956e-06
1.4342162e-06
1.4281777e-06
1.4380303e-06
1.3953194e-06
1.2737858e-06
1.0632773e-06
7.6446124e-07
4.420038e-07
2.1835226e-07
9.8283449e-08
3.6935222e-08
1.0819145e-08
2.4809521e-09
4.3434367e-10
5.7088745e-11
8.0873575e-12
4.5139993e-12
4.5979157e-12
7.2224206e-05
4.1985435e-06
1.2335972e-05
8.0879864e-05
7.6998464e-05
7.1245548e-05
3.2668617e-05
4.6920203e-06
4.6301623e-06
4.0256325e-06
2.3238157e-06
1.6311842e-06
1.433379e-06
1.42803e-06
1.4380129e-06
1.3951423e-06
1.2732151e-06
1.0621323e-06
7.6286486e-07
4.4047375e-07
2.174458e-07
9.7863858e-08
3.676883e-08
1.0767058e-08
2.4682348e-09
4.3202069e-10
5.6779502e-11
8.0457973e-12
4.4922179e-12
4.5757132e-12
7.2225339e-05
4.20297e-06
1.2572554e-05
8.0906488e-05
7.7072863e-05
7.1382159e-05
3.2410098e-05
4.7298589e-06
4.6396753e-06
3.9671553e-06
2.2993129e-06
1.6261591e-06
1.4328978e-06
1.4280525e-06
1.4380143e-06
1.3949527e-06
1.2727002e-06
1.0611929e-06
7.6161709e-07
4.3930224e-07
2.167494e-07
9.7538224e-08
3.6642876e-08
1.0728448e-08
2.4589773e-09
4.303465e-10
5.655648e-11
8.0145891e-12
4.4750917e-12
4.5582984e-12
7.2226047e-05
4.2077596e-06
1.2801847e-05
8.0929922e-05
7.7142869e-05
7.1508036e-05
3.2402672e-05
4.789709e-06
4.6613374e-06
3.9124883e-06
2.2746764e-06
1.6211399e-06
1.4327406e-06
1.4283337e-06
1.4381926e-06
1.3949332e-06
1.2724078e-06
1.0605635e-06
7.6072662e-07
4.3843072e-07
2.1621308e-07
9.7278246e-08
3.6539508e-08
1.0696892e-08
2.4515097e-09
4.2901335e-10
5.6381162e-11
7.9910247e-12
4.4627769e-12
4.5458907e-12
7.2226327e-05
4.2124602e-06
1.3019286e-05
8.0950221e-05
7.7207946e-05
7.162284e-05
3.2582039e-05
4.867602e-06
4.6913471e-06
3.8594901e-06
2.2495506e-06
1.6159e-06
1.4327232e-06
1.428757e-06
1.4384665e-06
1.3950074e-06
1.2722492e-06
1.0601365e-06
7.6008455e-07
4.3778155e-07
2.1580269e-07
9.7073184e-08
3.6455545e-08
1.0671158e-08
2.4454545e-09
4.2794114e-10
5.6241723e-11
7.9731645e-12
4.4540125e-12
4.5371398e-12
7.2226216e-05
4.2168166e-06
1.3222861e-05
8.0967505e-05
7.7267749e-05
7.1726436e-05
3.2902641e-05
4.9605515e-06
4.7270768e-06
3.8074709e-06
2.2241243e-06
1.6104431e-06
1.4327682e-06
1.42927e-06
1.4388077e-06
1.3951529e-06
1.272195e-06
1.0598682e-06
7.5963659e-07
4.373076e-07
2.1549467e-07
9.6915257e-08
3.6388601e-08
1.0650481e-08
2.4406003e-09
4.2708778e-10
5.6132509e-11
7.9604189e-12
4.4485572e-12
4.5317365e-12
7.2225779e-05
4.2207099e-06
1.3412758e-05
8.0982097e-05
7.7322403e-05
7.1819562e-05
3.3359748e-05
5.0653853e-06
4.7663529e-06
3.7563794e-06
2.1987798e-06
1.6048593e-06
1.4328263e-06
1.4298247e-06
1.4391842e-06
1.3953418e-06
1.2722123e-06
1.0597164e-06
7.5933541e-07
4.3696757e-07
2.1526616e-07
9.6795361e-08
3.6336278e-08
1.0634165e-08
2.436764e-09
4.2641622e-10
5.6047919e-11
7.9516872e-12
4.4456061e-12
4.5288426e-12
7.2225101e-05
4.224086e-06
1.3588859e-05
8.0994668e-05
7.7371715e-05
7.1901936e-05
3.3918436e-05
5.1747964e-06
4.8069241e-06
3.7065258e-06
2.1739953e-06
1.5992949e-06
1.4328762e-06
1.4303862e-06
1.4395718e-06
1.3955531e-06
1.2722762e-06
1.0596498e-06
7.5914703e-07
4.3673147e-07
2.1509903e-07
9.6706071e-08
3.6297087e-08
1.0621945e-08
2.433898e-09
4.2591807e-10
5.5986588e-11
7.946418e-12
4.4446257e-12
4.5278994e-12
7.2224458e-05
4.2269043e-06
1.3749612e-05
8.1006128e-05
7.7415599e-05
7.1973599e-05
3.4491458e-05
5.2953233e-06
4.8469984e-06
3.6581841e-06
2.1502352e-06
1.5939058e-06
1.4329044e-06
1.4309203e-06
1.4399443e-06
1.395764e-06
1.2723615e-06
1.0596377e-06
7.5903685e-07
4.3656624e-07
2.1497093e-07
9.6635672e-08
3.6267423e-08
1.0612828e-08
2.4317797e-09
4.2555329e-10
5.5942742e-11
7.943334e-12
4.4446053e-12
4.5278688e-12
7.2224555e-05
4.229154e-06
1.389112e-05
8.1017586e-05
7.745394e-05
7.2034924e-05
3.5228838e-05
5.4225102e-06
4.8852263e-06
3.6118321e-06
2.127968e-06
1.5888771e-06
1.4329343e-06
1.4314249e-06
1.4403047e-06
1.3959812e-06
1.2724715e-06
1.0596728e-06
7.5898767e-07
4.3645152e-07
2.1486701e-07
9.6574734e-08
3.6243276e-08
1.0605584e-08
2.4301287e-09
4.2527228e-10
5.5909089e-11
7.9407536e-12
4.4443073e-12
4.5275559e-12
7.222528e-05
4.2308413e-06
1.4021674e-05
8.1027381e-05
7.7487727e-05
7.2086264e-05
3.6004913e-05
5.5506545e-06
4.9207239e-06
3.568051e-06
2.1076178e-06
1.5844e-06
1.4330202e-06
1.4319273e-06
1.4406794e-06
1.3962276e-06
1.2726191e-06
1.0597521e-06
7.5898963e-07
4.3637628e-07
2.1477927e-07
9.6517102e-08
3.6219616e-08
1.0598365e-08
2.4284672e-09
4.2498587e-10
5.5873974e-11
7.9377079e-12
4.4436712e-12
4.5269433e-12
7.2226506e-05
4.2319912e-06
1.414264e-05
8.1035811e-05
7.7517422e-05
7.2129511e-05
3.6689689e-05
5.6744419e-06
4.9528087e-06
3.5271518e-06
2.0893951e-06
1.5805754e-06
1.4331769e-06
1.4324228e-06
1.4410608e-06
1.3964907e-06
1.2727872e-06
1.059871e-06
7.5904324e-07
4.3634094e-07
2.1471135e-07
9.6466443e-08
3.6197053e-08
1.059127e-08
2.4268179e-09
4.247007e-10
5.5839169e-11
7.9351001e-12
4.4435711e-12
4.5269044e-12
7.2228111e-05
4.2326526e-06
1.4253925e-05
8.1043151e-05
7.7543464e-05
7.2164829e-05
3.744919e-05
5.793168e-06
4.9805974e-06
3.4891273e-06
2.0733112e-06
1.5774072e-06
1.433373e-06
1.4328687e-06
1.4414079e-06
1.3967277e-06
1.2729463e-06
1.0599958e-06
7.5911503e-07
4.3632925e-07
2.1465953e-07
9.6423074e-08
3.6176601e-08
1.058458e-08
2.4252194e-09
4.2441939e-10
5.5804736e-11
7.9328975e-12
4.4439381e-12
4.5273416e-12
7.2230002e-05
4.2328901e-06
1.4355837e-05
8.1049677e-05
7.7566372e-05
7.2193759e-05
3.8174874e-05
5.9052207e-06
5.0038115e-06
3.4539958e-06
2.0593271e-06
1.5748909e-06
1.4336009e-06
1.4332634e-06
1.4417028e-06
1.3969349e-06
1.2730818e-06
1.0600984e-06
7.5918277e-07
4.3632836e-07
2.1461911e-07
9.6386565e-08
3.6159151e-08
1.0578679e-08
2.4237741e-09
4.2416022e-10
5.5772562e-11
7.9309054e-12
4.4444096e-12
4.5278933e-12
7.2232105e-05
4.2327758e-06
1.4449086e-05
8.1055643e-05
7.7586635e-05
7.2217378e-05
3.8863486e-05
6.0095111e-06
5.0224843e-06
3.4217565e-06
2.0473496e-06
1.5730076e-06
1.4338687e-06
1.4336035e-06
1.4419555e-06
1.3971081e-06
1.2731794e-06
1.0601632e-06
7.5922355e-07
4.3631828e-07
2.1458018e-07
9.6352862e-08
3.6143094e-08
1.0573127e-08
2.4223843e-09
4.2390628e-10
5.5740674e-11
7.9290552e-12
4.4450505e-12
4.5286101e-12
7.2234342e-05
4.2323823e-06
1.4534767e-05
8.1061236e-05
7.7604691e-05
7.2236643e-05
3.950234e-05
6.1052411e-06
5.0368349e-06
3.3922909e-06
2.0372066e-06
1.5717e-06
1.4341722e-06
1.4338895e-06
1.4421662e-06
1.3972437e-06
1.2732363e-06
1.060183e-06
7.5922795e-07
4.3629094e-07
2.1453895e-07
9.6321205e-08
3.6128995e-08
1.0568228e-08
2.4211397e-09
4.2367544e-10
5.5711379e-11
7.9274674e-12
4.4458002e-12
4.5294317e-12
7.2236652e-05
4.2317809e-06
1.4614284e-05
8.1066599e-05
7.7620931e-05
7.2252372e-05
4.0085964e-05
6.192109e-06
5.0473111e-06
3.3654469e-06
2.0286983e-06
1.570888e-06
1.4345028e-06
1.4341364e-06
1.4423369e-06
1.3973394e-06
1.2732523e-06
1.0601521e-06
7.5918274e-07
4.3623166e-07
2.1448606e-07
9.6287044e-08
3.6115115e-08
1.0563466e-08
2.4199235e-09
4.234475e-10
5.5682047e-11
7.9256674e-12
4.4463301e-12
4.5300342e-12
7.223899e-05
4.2310326e-06
1.4689121e-05
8.1071829e-05
7.7635688e-05
7.2265223e-05
4.061499e-05
6.2703202e-06
5.0544711e-06
3.3410475e-06
2.0215963e-06
1.5705137e-06
1.4348691e-06
1.4343547e-06
1.4424806e-06
1.3974103e-06
1.27324e-06
1.0600861e-06
7.590977e-07
4.3614379e-07
2.1442207e-07
9.6250875e-08
3.6102134e-08
1.0559133e-08
2.4188179e-09
4.232391e-10
5.5654997e-11
7.9239674e-12
4.4467974e-12
4.5305754e-12
7.2241318e-05
4.2301902e-06
1.4760835e-05
8.1076976e-05
7.7649237e-05
7.2275712e-05
4.1093378e-05
6.3403753e-06
5.0589099e-06
3.3188999e-06
2.015714e-06
1.5705101e-06
1.4352659e-06
1.4345613e-06
1.4426066e-06
1.3974647e-06
1.2732095e-06
1.0599913e-06
7.5897379e-07
4.3602143e-07
2.1434108e-07
9.6208964e-08
3.6088263e-08
1.0554693e-08
2.4177026e-09
4.2302899e-10
5.5627558e-11
7.9221384e-12
4.4471609e-12
4.5310138e-12
7.2243611e-05
4.2293016e-06
1.4830972e-05
8.1082057e-05
7.7661799e-05
7.2284225e-05
4.1527045e-05
6.4029172e-06
5.0611753e-06
3.2987379e-06
2.0108762e-06
1.5708075e-06
1.4356921e-06
1.4347599e-06
1.4427233e-06
1.3975099e-06
1.2731703e-06
1.0598821e-06
7.5882543e-07
4.358739e-07
2.1424686e-07
9.6162947e-08
3.6074388e-08
1.055048e-08
2.4166666e-09
4.228348e-10
5.5602136e-11
7.920463e-12
4.4475443e-12
4.5314801e-12
7.2245848e-05
4.2284083e-06
1.4901102e-05
8.1087061e-05
7.7673546e-05
7.2291052e-05
4.1920917e-05
6.4586097e-06
5.0616728e-06
3.2802796e-06
2.0068804e-06
1.5713354e-06
1.436137e-06
1.4349438e-06
1.4428263e-06
1.3975421e-06
1.2731188e-06
1.0597582e-06
7.5865382e-07
4.357009e-07
2.141374e-07
9.6110999e-08
3.6059615e-08
1.0546177e-08
2.4156283e-09
4.2264117e-10
5.5576765e-11
7.9186871e-12
4.4478061e-12
4.5318266e-12
7.2248018e-05
4.2275409e-06
1.4972601e-05
8.1091967e-05
7.7684619e-05
7.229641e-05
4.228068e-05
6.5081432e-06
5.0607382e-06
3.2634721e-06
2.0035657e-06
1.5720276e-06
1.4365931e-06
1.4351235e-06
1.4429212e-06
1.3975675e-06
1.2730641e-06
1.059633e-06
7.5847597e-07
4.3551631e-07
2.1401939e-07
9.605596e-08
3.6045486e-08
1.0542333e-08
2.4147322e-09
4.2247583e-10
5.5555031e-11
7.9170777e-12
4.4479494e-12
4.5320614e-12
7.2250114e-05
4.226722e-06
1.5046535e-05
8.1096746e-05
7.7695129e-05
7.2300464e-05
4.2613897e-05
6.5524503e-06
5.0587919e-06
3.248226e-06
2.0008662e-06
1.5728562e-06
1.437067e-06
1.4353052e-06
1.4430174e-06
1.3975932e-06
1.2730116e-06
1.0595104e-06
7.5829416e-07
4.353196e-07
2.1389039e-07
9.5995026e-08
3.6030111e-08
1.0538337e-08
2.413833e-09
4.2231165e-10
5.5533278e-11
7.9152697e-12
4.4478758e-12
4.5320832e-12
7.2252128e-05
4.2259628e-06
1.5123925e-05
8.1101367e-05
7.770516e-05
7.2303349e-05
4.2927007e-05
6.5923207e-06
5.0561094e-06
3.2341735e-06
1.9986704e-06
1.5737884e-06
1.4375557e-06
1.4354928e-06
1.4431188e-06
1.3976254e-06
1.272969e-06
1.0594004e-06
7.5812131e-07
4.351238e-07
2.1375829e-07
9.5931632e-08
3.6014448e-08
1.0534464e-08
2.4130018e-09
4.2216354e-10
5.5513648e-11
7.9134946e-12
4.4476696e-12
4.531991e-12
7.2254054e-05
4.2252642e-06
1.5205002e-05
8.1105843e-05
7.7714779e-05
7.2305193e-05
4.3221138e-05
6.6281916e-06
5.0526692e-06
3.2211392e-06
1.9968527e-06
1.5747853e-06
1.4380469e-06
1.4356823e-06
1.4432223e-06
1.3976603e-06
1.2729331e-06
1.0593004e-06
7.5795757e-07
4.3493151e-07
2.1362538e-07
9.58664e-08
3.5997781e-08
1.0530355e-08
2.4121363e-09
4.2201174e-10
5.5493609e-11
7.9115927e-12
4.4473621e-12
4.5318123e-12
7.225586e-05
4.2246272e-06
1.5289704e-05
8.1110184e-05
7.7724015e-05
7.2306079e-05
4.3497567e-05
6.6606167e-06
5.0486725e-06
3.2090559e-06
1.9953416e-06
1.5758305e-06
1.4385318e-06
1.4358696e-06
1.4433264e-06
1.3977e-06
1.2729072e-06
1.0592198e-06
7.5781676e-07
4.3475783e-07
2.135019e-07
9.5805114e-08
3.5982704e-08
1.0526799e-08
2.4114236e-09
4.2189125e-10
5.5478122e-11
7.9103181e-12
4.4473767e-12
4.5319723e-12
7.225756e-05
4.2240572e-06
1.5378879e-05
8.1114431e-05
7.7732932e-05
7.2306109e-05
4.3761699e-05
6.6903568e-06
5.0444315e-06
3.1979293e-06
1.9941485e-06
1.576921e-06
1.4390151e-06
1.4360597e-06
1.4434355e-06
1.3977462e-06
1.2728908e-06
1.0591502e-06
7.576871e-07
4.345922e-07
2.1338173e-07
9.5744412e-08
3.5967612e-08
1.0523258e-08
2.4107256e-09
4.2177461e-10
5.5463156e-11
7.9090381e-12
4.4473472e-12
4.5321005e-12
7.2259213e-05
4.223549e-06
1.547295e-05
8.1118646e-05
7.7741581e-05
7.2305396e-05
4.4025013e-05
6.7176989e-06
5.0398409e-06
3.1876188e-06
1.9932029e-06
1.5780475e-06
1.439506e-06
1.4362587e-06
1.443554e-06
1.3978016e-06
1.2728855e-06
1.0590933e-06
7.575713e-07
4.3443851e-07
2.1326832e-07
9.5686536e-08
3.5953247e-08
1.0519945e-08
2.4100906e-09
4.2167125e-10
5.5450149e-11
7.9080755e-12
4.4475189e-12
4.5324413e-12
7.2260885e-05
4.2230953e-06
1.5571442e-05
8.1122851e-05
7.7749959e-05
7.2303996e-05
4.4265433e-05
6.7428738e-06
5.0348861e-06
3.1779726e-06
1.9924519e-06
1.5791794e-06
1.439987e-06
1.4364535e-06
1.4436692e-06
1.3978531e-06
1.2728771e-06
1.0590362e-06
7.5745997e-07
4.3429122e-07
2.1315928e-07
9.5630492e-08
3.5939066e-08
1.0516609e-08
2.409443e-09
4.215659e-10
5.5437142e-11
7.9072456e-12
4.4478287e-12
4.5329229e-12
7.2262601e-05
4.22269e-06
1.5673903e-05
8.1127109e-05
7.775807e-05
7.2301995e-05
4.4491225e-05
6.7661959e-06
5.0300294e-06
3.1689575e-06
1.9918877e-06
1.5803167e-06
1.4404519e-06
1.4366403e-06
1.4437784e-06
1.3978996e-06
1.2728672e-06
1.0589855e-06
7.5736198e-07
4.3415897e-07
2.1305995e-07
9.557955e-08
3.5927202e-08
1.0513978e-08
2.4089601e-09
4.2149019e-10
5.5428061e-11
7.9068976e-12
4.4483525e-12
4.5336173e-12
7.2264367e-05
4.2223265e-06
1.5779648e-05
8.1131508e-05
7.7765902e-05
7.2299428e-05
4.4705866e-05
6.7879314e-06
5.0251336e-06
3.1606059e-06
1.9914977e-06
1.58146e-06
1.4409109e-06
1.4368258e-06
1.4438867e-06
1.3979443e-06
1.2728552e-06
1.0589351e-06
7.5726747e-07
4.3403036e-07
2.1296265e-07
9.5529393e-08
3.5915499e-08
1.0511383e-08
2.4084842e-09
4.2141517e-10
5.5419101e-11
7.9066697e-12
4.4489994e-12
4.5344281e-12
7.2266182e-05
4.2220056e-06
1.5886859e-05
8.1136191e-05
7.7773418e-05
7.2296303e-05
4.4914702e-05
6.8082862e-06
5.0201306e-06
3.1528755e-06
1.9912676e-06
1.582613e-06
1.4413675e-06
1.4370129e-06
1.4439967e-06
1.3979914e-06
1.2728457e-06
1.0588898e-06
7.5718116e-07
4.3390999e-07
2.1287058e-07
9.5482014e-08
3.5905058e-08
1.0509217e-08
2.4081163e-09
4.2136027e-10
5.5412823e-11
7.9068062e-12
4.4498409e-12
4.5354383e-12
7.2268044e-05
4.2217287e-06
1.5994975e-05
8.1141295e-05
7.7780574e-05
7.2292656e-05
4.5119455e-05
6.8274074e-06
5.0150594e-06
3.1457575e-06
1.9911673e-06
1.5837568e-06
1.4418135e-06
1.4371935e-06
1.4440997e-06
1.3980299e-06
1.2728274e-06
1.058836e-06
7.5708826e-07
4.3378588e-07
2.1277687e-07
9.5433804e-08
3.5894154e-08
1.0506872e-08
2.4076999e-09
4.2129598e-10
5.5405345e-11
7.90682e-12
4.4506364e-12
4.5363984e-12
7.2269947e-05
4.2214873e-06
1.610421e-05
8.1146644e-05
7.7787432e-05
7.2288509e-05
4.5320402e-05
6.8454965e-06
5.0100574e-06
3.1391703e-06
1.9911878e-06
1.5849017e-06
1.4422528e-06
1.4373717e-06
1.4442004e-06
1.3980661e-06
1.272809e-06
1.0587854e-06
7.570016e-07
4.3366919e-07
2.1268826e-07
9.5388628e-08
3.5885003e-08
1.0505104e-08
2.4074246e-09
4.2125782e-10
5.5401258e-11
7.9071344e-12
4.4514884e-12
4.5374183e-12
7.2271889e-05
4.2212663e-06
1.6216585e-05
8.1151915e-05
7.7794113e-05
7.2283892e-05
4.5517084e-05
6.8627273e-06
5.0052128e-06
3.1330722e-06
1.9913309e-06
1.5860497e-06
1.4426951e-06
1.4375561e-06
1.4443067e-06
1.3981067e-06
1.2727925e-06
1.0587332e-06
7.5691122e-07
4.3354775e-07
2.125964e-07
9.5341606e-08
3.5874943e-08
1.0503056e-08
2.4070841e-09
4.2120734e-10
5.53956e-11
7.9073967e-12
4.4524122e-12
4.538505e-12
7.2273868e-05
4.2210572e-06
1.6332629e-05
8.1157101e-05
7.7800629e-05
7.2278835e-05
4.5708372e-05
6.879215e-06
5.0005268e-06
3.1274307e-06
1.9915833e-06
1.5872009e-06
1.4431409e-06
1.4377477e-06
1.4444204e-06
1.3981546e-06
1.2727817e-06
1.0586862e-06
7.5682504e-07
4.3342956e-07
2.1250674e-07
9.5295981e-08
3.5865669e-08
1.0501315e-08
2.4068274e-09
4.2117337e-10
5.5392174e-11
7.907965e-12
4.4535074e-12
4.5397722e-12
7.227588e-05
4.2208612e-06
1.6452725e-05
8.1162196e-05
7.7806988e-05
7.2273358e-05
4.5893469e-05
6.8949594e-06
4.9959364e-06
3.1221572e-06
1.9919154e-06
1.5883366e-06
1.4435786e-06
1.4379358e-06
1.4445301e-06
1.398197e-06
1.2727641e-06
1.0586301e-06
7.5672835e-07
4.3330256e-07
2.1241217e-07
9.5247971e-08
3.5855305e-08
1.0499191e-08
2.4064718e-09
4.2112098e-10
5.5386427e-11
7.9082912e-12
4.4545129e-12
4.5409474e-12
7.2277922e-05
4.2206787e-06
1.6577165e-05
8.1167192e-05
7.7813196e-05
7.226747e-05
4.6073974e-05
6.9099543e-06
4.991355e-06
3.1172485e-06
1.9923228e-06
1.5894675e-06
1.4440111e-06
1.4381236e-06
1.4446399e-06
1.39824e-06
1.2727496e-06
1.0585801e-06
7.5663837e-07
4.3318196e-07
2.1232178e-07
9.5202647e-08
3.5846776e-08
1.0497687e-08
2.4062683e-09
4.2109668e-10
5.5384301e-11
7.9089287e-12
4.4555694e-12
4.5421785e-12
7.2279996e-05
4.2205062e-06
1.6706207e-05
8.117208e-05
7.7819259e-05
7.2261182e-05
4.6252614e-05
6.9244521e-06
4.9869904e-06
3.1127104e-06
1.9928152e-06
1.5905978e-06
1.4444482e-06
1.438319e-06
1.4447569e-06
1.398289e-06
1.2727389e-06
1.0585304e-06
7.5654448e-07
4.3305455e-07
2.1222609e-07
9.5154319e-08
3.5837012e-08
1.0495816e-08
2.4059797e-09
4.210562e-10
5.5380023e-11
7.9094101e-12
4.4566324e-12
4.5434109e-12
7.2282099e-05
4.220342e-06
1.6839941e-05
8.1176849e-05
7.7825183e-05
7.2254511e-05
4.642973e-05
6.9384403e-06
4.9828172e-06
3.1085173e-06
1.9933872e-06
1.5917316e-06
1.4448913e-06
1.4385235e-06
1.4448831e-06
1.3983475e-06
1.2727381e-06
1.0584899e-06
7.5645714e-07
4.3293049e-07
2.1213182e-07
9.5106794e-08
3.5827849e-08
1.049421e-08
2.4057666e-09
4.2103084e-10
5.5377767e-11
7.9101459e-12
4.4578269e-12
4.544786e-12
7.2284232e-05
4.2201877e-06
1.6978449e-05
8.1181485e-05
7.7830969e-05
7.2247474e-05
4.6603076e-05
6.9519168e-06
4.9787743e-06
3.1046101e-06
1.9940153e-06
1.5928532e-06
1.4453292e-06
1.4387269e-06
1.4450075e-06
1.3984029e-06
1.2727333e-06
1.0584434e-06
7.5636185e-07
4.3279783e-07
2.1203191e-07
9.5056208e-08
3.5817247e-08
1.049211e-08
2.4054279e-09
4.2098175e-10
5.5372429e-11
7.910549e-12
4.4588985e-12
4.546038e-12
7.2286393e-05
4.2200446e-06
1.7121937e-05
8.1185981e-05
7.783662e-05
7.2240078e-05
4.6772908e-05
6.9650458e-06
4.9748334e-06
3.1009698e-06
1.9946979e-06
1.5939721e-06
1.4457652e-06
1.4389303e-06
1.4451324e-06
1.3984605e-06
1.2727333e-06
1.0584056e-06
7.56277e-07
4.3267404e-07
2.1193714e-07
9.5008467e-08
3.5808489e-08
1.049064e-08
2.4052458e-09
4.209618e-10
5.5370818e-11
7.9112655e-12
4.4600179e-12
4.5473419e-12
7.2288584e-05
4.2199095e-06
1.7270672e-05
8.1190327e-05
7.7842139e-05
7.2232326e-05
4.694217e-05
6.977972e-06
4.9710455e-06
3.097607e-06
1.9954485e-06
1.5950947e-06
1.4462083e-06
1.4391427e-06
1.4452655e-06
1.3985253e-06
1.27274e-06
1.0583725e-06
7.5619242e-07
4.3254619e-07
2.118382e-07
9.4957965e-08
3.5798358e-08
1.0488733e-08
2.4049586e-09
4.2092183e-10
5.5366592e-11
7.9117964e-12
4.4611481e-12
4.548654e-12
7.2290803e-05
4.2197805e-06
1.7424854e-05
8.1194515e-05
7.7847528e-05
7.2224238e-05
4.7111549e-05
6.9906344e-06
4.9674206e-06
3.094495e-06
1.9962625e-06
1.596226e-06
1.4466595e-06
1.4393644e-06
1.4454074e-06
1.3985991e-06
1.2727571e-06
1.058351e-06
7.5611801e-07
4.3242504e-07
2.1174247e-07
9.490897e-08
3.5788964e-08
1.0487117e-08
2.4047527e-09
4.2089815e-10
5.5364556e-11
7.9126354e-12
4.4624596e-12
4.5501564e-12
7.2293053e-05
4.2196607e-06
1.7584571e-05
8.1198544e-05
7.7852786e-05
7.221583e-05
4.7280074e-05
7.0029326e-06
4.9639331e-06
3.0916221e-06
1.9971181e-06
1.5973397e-06
1.4471045e-06
1.4395828e-06
1.4455455e-06
1.3986679e-06
1.2727688e-06
1.0583238e-06
7.560383e-07
4.3229896e-07
2.116434e-07
9.485798e-08
3.5778489e-08
1.0485098e-08
2.4044403e-09
4.2085435e-10
5.5359942e-11
7.9131877e-12
4.4636544e-12
4.5515419e-12
7.2295332e-05
4.2195517e-06
1.7749902e-05
8.1202417e-05
7.7857914e-05
7.2207113e-05
4.744617e-05
7.0149782e-06
4.9605668e-06
3.088985e-06
1.9980125e-06
1.5984495e-06
1.447544e-06
1.4397992e-06
1.4456824e-06
1.3987381e-06
1.2727837e-06
1.0583058e-06
7.5597194e-07
4.3218535e-07
2.1155169e-07
9.4810929e-08
3.5770238e-08
1.0483803e-08
2.4043028e-09
4.208425e-10
5.5359417e-11
7.9140924e-12
4.4649105e-12
4.552994e-12
7.229764e-05
4.2194499e-06
1.7921065e-05
8.1206144e-05
7.7862909e-05
7.2198093e-05
4.760863e-05
7.0267321e-06
4.9572756e-06
3.0865315e-06
1.9989595e-06
1.5995676e-06
1.4479918e-06
1.4400233e-06
1.4458253e-06
1.3988126e-06
1.272802e-06
1.0582897e-06
7.5590537e-07
4.3206912e-07
2.1145733e-07
9.4762014e-08
3.5761026e-08
1.0482206e-08
2.404093e-09
4.2081648e-10
5.5356977e-11
7.9148702e-12
4.4661891e-12
4.5544634e-12
7.2299977e-05
4.2193534e-06
1.8098192e-05
8.1209746e-05
7.7867766e-05
7.2188782e-05
4.7768258e-05
7.038229e-06
4.9540872e-06
3.084276e-06
1.9999602e-06
1.6006926e-06
1.4484479e-06
1.4402561e-06
1.4459759e-06
1.3988935e-06
1.2728276e-06
1.0582814e-06
7.5584656e-07
4.3195936e-07
2.1136685e-07
9.4715126e-08
3.5752794e-08
1.0480974e-08
2.4039801e-09
4.208092e-10
5.535699e-11
7.9159294e-12
4.4675962e-12
4.556073e-12
7.2302344e-05
4.2192625e-06
1.8281056e-05
8.1213261e-05
7.7872478e-05
7.2179189e-05
4.7924895e-05
7.0494803e-06
4.9510046e-06
3.0822146e-06
2.000993e-06
1.6018029e-06
1.4488982e-06
1.4404858e-06
1.4461224e-06
1.3989685e-06
1.2728449e-06
1.058263e-06
7.5577844e-07
4.3184271e-07
2.112726e-07
9.4666201e-08
3.5743448e-08
1.0479333e-08
2.4037595e-09
4.2078106e-10
5.5354234e-11
7.9166697e-12
4.468873e-12
4.5575519e-12
7.230474e-05
4.2191768e-06
1.8469131e-05
8.1216747e-05
7.787703e-05
7.2169319e-05
4.807881e-05
7.0605242e-06
4.9480158e-06
3.0803273e-06
2.0020591e-06
1.6029118e-06
1.4493457e-06
1.4407148e-06
1.4462682e-06
1.3990433e-06
1.2728634e-06
1.0582493e-06
7.5571859e-07
4.3173548e-07
2.1118479e-07
9.4621045e-08
3.5736235e-08
1.0478393e-08
2.40371e-09
4.2078471e-10
5.5355608e-11
7.9177767e-12
4.4702201e-12
4.5591054e-12
7.2307165e-05
4.2190945e-06
1.8661692e-05
8.1220292e-05
7.7881398e-05
7.2159172e-05
4.8230552e-05
7.0714786e-06
4.9451859e-06
3.0786409e-06
2.0031745e-06
1.6040235e-06
1.4498005e-06
1.4409516e-06
1.4464206e-06
1.3991229e-06
1.2728842e-06
1.0582342e-06
7.5565422e-07
4.3162238e-07
2.1109297e-07
9.4573603e-08
3.5727882e-08
1.0477093e-08
2.4035727e-09
4.2077116e-10
5.5354667e-11
7.9187229e-12
4.4715851e-12
4.560673e-12
7.2309617e-05
4.2190165e-06
1.885767e-05
8.1224008e-05
7.7885551e-05
7.2148758e-05
4.8378732e-05
7.0823493e-06
4.942508e-06
3.0771444e-06
2.0043358e-06
1.6051412e-06
1.4502621e-06
1.441196e-06
1.44658e-06
1.3992091e-06
1.2729113e-06
1.0582247e-06
7.5559432e-07
4.3151295e-07
2.1100378e-07
9.4527839e-08
3.5720412e-08
1.0476134e-08
2.403529e-09
4.2077617e-10
5.5356236e-11
7.9200016e-12
4.4731286e-12
4.5624275e-12
7.2312096e-05
4.2189544e-06
1.9055532e-05
8.1228014e-05
7.7889452e-05
7.2138076e-05
4.8523601e-05
7.0930896e-06
4.9399097e-06
3.0757945e-06
2.0055223e-06
1.6062456e-06
1.4507184e-06
1.4414364e-06
1.4467345e-06
1.3992886e-06
1.2729297e-06
1.0582042e-06
7.5552289e-07
4.3139429e-07
2.1090961e-07
9.4479698e-08
3.5711839e-08
1.0474781e-08
2.4033813e-09
4.2076126e-10
5.5355182e-11
7.9209612e-12
4.4745254e-12
4.564034e-12
7.2314598e-05
4.2189208e-06
1.9254033e-05
8.1232371e-05
7.7893079e-05
7.2127118e-05
4.8669683e-05
7.103801e-06
4.9374233e-06
3.074593e-06
2.0067371e-06
1.6073494e-06
1.4511717e-06
1.4416751e-06
1.4468873e-06
1.3993677e-06
1.2729493e-06
1.0581884e-06
7.5545849e-07
4.3128288e-07
2.1082024e-07
9.4434543e-08
3.5705167e-08
1.0474063e-08
2.4033895e-09
4.2077541e-10
5.535792e-11
7.922237e-12
4.4759594e-12
4.5656804e-12
7.2317123e-05
4.2189105e-06
1.9453416e-05
8.1236963e-05
7.789647e-05
7.2115908e-05
4.8818342e-05
7.1146075e-06
4.9351153e-06
3.0735686e-06
2.0079984e-06
1.608459e-06
1.4516333e-06
1.4419215e-06
1.4470463e-06
1.3994518e-06
1.2729722e-06
1.0581723e-06
7.553897e-07
4.311647e-07
2.1072592e-07
9.4386616e-08
3.5697273e-08
1.0472979e-08
2.4033114e-09
4.2077294e-10
5.5358419e-11
7.9233512e-12
4.4774045e-12
4.5673333e-12
7.2319667e-05
4.2189128e-06
1.965732e-05
8.1241425e-05
7.7899772e-05
7.2104492e-05
4.8965875e-05
7.1254375e-06
4.9329579e-06
3.0727083e-06
2.009304e-06
1.6095789e-06
1.452103e-06
1.4421756e-06
1.4472121e-06
1.3995426e-06
1.2730029e-06
1.0581631e-06
7.5532614e-07
4.3104977e-07
2.1063337e-07
9.433978e-08
3.5690091e-08
1.0472195e-08
2.4033177e-09
4.2078717e-10
5.5361146e-11
7.9247418e-12
4.4789873e-12
4.5691331e-12
7.232223e-05
4.2189216e-06
1.9866709e-05
8.1245755e-05
7.7903003e-05
7.2092901e-05
4.9109443e-05
7.1361689e-06
4.9308701e-06
3.0719647e-06
2.0106319e-06
1.6106877e-06
1.4525692e-06
1.4424263e-06
1.4473731e-06
1.3996269e-06
1.2730263e-06
1.0581453e-06
7.5525354e-07
4.309265e-07
2.1053571e-07
9.429025e-08
3.5681708e-08
1.0471001e-08
2.4032181e-09
4.2078087e-10
5.5361085e-11
7.9257756e-12
4.4804006e-12
4.570764e-12
7.2324806e-05
4.218941e-06
2.0082666e-05
8.1249953e-05
7.7906172e-05
7.2081134e-05
4.9251102e-05
7.1468564e-06
4.9288625e-06
3.0713369e-06
2.0119842e-06
1.611799e-06
1.453034e-06
1.4426758e-06
1.4475325e-06
1.399711e-06
1.2730513e-06
1.0581339e-06
7.5518945e-07
4.3081104e-07
2.1044268e-07
9.4243318e-08
3.5674912e-08
1.0470342e-08
2.4032528e-09
4.2079998e-10
5.5364362e-11
7.9271047e-12
4.4818681e-12
4.572452e-12
7.2327393e-05
4.2189734e-06
2.0305743e-05
8.1254017e-05
7.7909284e-05
7.2069198e-05
4.9393385e-05
7.1576154e-06
4.9269997e-06
3.0708548e-06
2.0133781e-06
1.6129182e-06
1.4535074e-06
1.4429324e-06
1.4476971e-06
1.399799e-06
1.2730795e-06
1.0581238e-06
7.5512356e-07
4.3069098e-07
2.1034583e-07
9.4194021e-08
3.5666941e-08
1.0469314e-08
2.403198e-09
4.2080182e-10
5.5365326e-11
7.9282742e-12
4.4833549e-12
4.5741576e-12
7.2329989e-05
4.2190182e-06
2.0536507e-05
8.1257945e-05
7.7912346e-05
7.205711e-05
4.9535432e-05
7.1684278e-06
4.9252752e-06
3.0705114e-06
2.0148105e-06
1.6140495e-06
1.4539886e-06
1.4431957e-06
1.447867e-06
1.3998917e-06
1.2731134e-06
1.0581208e-06
7.5506446e-07
4.3057589e-07
2.1025171e-07
9.4146167e-08
3.5659672e-08
1.0468559e-08
2.4032188e-09
4.2081873e-10
5.5368352e-11
7.9297424e-12
4.4850207e-12
4.5760497e-12
7.2332591e-05
4.2190801e-06
2.0775366e-05
8.1261742e-05
7.7915363e-05
7.2044883e-05
4.9674643e-05
7.1792214e-06
4.92363e-06
3.0702672e-06
2.0162591e-06
1.6151647e-06
1.4544648e-06
1.4434537e-06
1.4480298e-06
1.3999754e-06
1.2731374e-06
1.0581077e-06
7.5499676e-07
4.3045445e-07
2.1015409e-07
9.4096545e-08
3.5651573e-08
1.0467501e-08
2.4031592e-09
4.2082028e-10
5.5369345e-11
7.9309592e-12
4.4865679e-12
4.5778218e-12
7.2335197e-05
4.2191658e-06
2.1022608e-05
8.1265416e-05
7.7918338e-05
7.203251e-05
4.9812616e-05
7.1900766e-06
4.9220886e-06
3.070126e-06
2.0177261e-06
1.6162818e-06
1.4549385e-06
1.4437095e-06
1.4481894e-06
1.4000564e-06
1.2731605e-06
1.0580987e-06
7.5493721e-07
4.3034142e-07
2.1006179e-07
9.4049928e-08
3.5645249e-08
1.0467024e-08
2.403241e-09
4.20848e-10
5.5373754e-11
7.9324471e-12
4.4881327e-12
4.5796156e-12
7.2337803e-05
4.2192742e-06
2.1278583e-05
8.1268979e-05
7.7921271e-05
7.2019979e-05
4.9952238e-05
7.2011236e-06
4.9207235e-06
3.070116e-06
2.0192259e-06
1.6174027e-06
1.4554191e-06
1.4439711e-06
1.4483526e-06
1.4001387e-06
1.2731828e-06
1.0580867e-06
7.5487361e-07
4.3022334e-07
2.0996586e-07
9.4001203e-08
3.5637968e-08
1.0466267e-08
2.4032586e-09
4.2086326e-10
5.5376444e-11
7.9338299e-12
4.4897309e-12
4.5814377e-12
7.2340406e-05
4.2194019e-06
2.1543355e-05
8.1272453e-05
7.7924159e-05
7.2007292e-05
5.0092588e-05
7.2123654e-06
4.9195384e-06
3.0702315e-06
2.0207554e-06
1.6185342e-06
1.4559069e-06
1.4442392e-06
1.4485208e-06
1.4002249e-06
1.2732083e-06
1.0580783e-06
7.5481396e-07
4.3010923e-07
2.0987253e-07
9.3953994e-08
3.5631526e-08
1.0465839e-08
2.4033653e-09
4.2089591e-10
5.5381454e-11
7.9354849e-12
4.4914562e-12
4.5833988e-12
7.2343007e-05
4.2195496e-06
2.1817222e-05
8.1275853e-05
7.7926994e-05
7.1994444e-05
5.023136e-05
7.2237668e-06
4.9184913e-06
3.0704411e-06
2.0222959e-06
1.6196477e-06
1.4563906e-06
1.4445035e-06
1.4486831e-06
1.4003023e-06
1.2732224e-06
1.058056e-06
7.5474113e-07
4.2998554e-07
2.0977418e-07
9.3904282e-08
3.5623936e-08
1.0465019e-08
2.403372e-09
4.209093e-10
5.538384e-11
7.9368036e-12
4.4930217e-12
4.5851987e-12
7.2345606e-05
4.2197157e-06
2.2100823e-05
8.1279192e-05
7.7929762e-05
7.1981412e-05
5.0370318e-05
7.2353976e-06
4.9176023e-06
3.0707491e-06
2.0238509e-06
1.6207629e-06
1.4568744e-06
1.4447687e-06
1.4488456e-06
1.4003797e-06
1.2732363e-06
1.0580362e-06
7.5467404e-07
4.2986856e-07
2.0968064e-07
9.3857537e-08
3.5618075e-08
1.0464772e-08
2.4035209e-09
4.2094986e-10
5.5389844e-11
7.9384196e-12
4.4946155e-12