/*--------------------------------*- C++ -*----------------------------------*\
| =========                 |                                                 |
| \\      /  F ield         | OpenFOAM: The Open Source CFD Toolbox           |
|  \\    /   O peration     | Version:  v2012                                 |
|   \\  /    A nd           | Website:  www.openfoam.com                      |
|    \\/     M anipulation  |                                                 |
\*---------------------------------------------------------------------------*/
FoamFile
{
    version     2.0;
    format      ascii;
    class       volScalarField;
    location    "50";
    object      omega;
}
// * * * * * * * * * * * * * * * * * * * * * * * * * * * * * * * * * * * * * //

dimensions      [0 0 -1 0 0 0 0];


internalField   nonuniform List<scalar> 
24000
(
1222.9848
3088.2263
1310.4363
1105.7496
1159.8933
1264.6301
1531.0414
2773.8907
4544.6735
13358.598
34572.271
79034.672
147299.62
224092.7
296164.33
358629.48
416913.95
493454.74
634185.22
907434.29
1391563.7
2137666.3
3252338.1
5112775.8
8724020.1
16676307
36591932
96775464
3.4827651e+08
2.3766215e+09
1222.33
3087.6825
1307.2401
1104.8234
1159.0845
1264.6235
1527.9622
2738.1157
4568.4675
13582.305
35052.9
79891.331
148454.33
224842.77
295664.57
356443.17
413033.95
487758.86
624166.85
889593.59
1362507.4
2099379.7
3216656.5
5095960.6
8733480.8
16700863
36590052
96585271
3.4673592e+08
2.3787739e+09
1222.1904
3086.5825
1304.1315
1104.1035
1157.5902
1261.3697
1519.6907
2724.2216
4578.498
13748.623
35453.411
80510.418
149289.45
225788.6
296477.75
356980.76
413445.4
487732.27
623288.68
887045.37
1357259.3
2090045.5
3200649.2
5070353.2
8698353.1
16661410
36558566
96599991
3.4706133e+08
2.3779467e+09
1222.1013
3085.2953
1301.1083
1103.4461
1156.1718
1258.4241
1512.0723
2700.8982
4586.7779
13902.064
35777.645
80965.536
149869.93
226455.42
297071.24
357385.71
413766.68
488277.58
624634.79
889997.29
1362133.7
2095905
3206435.7
5076429.4
8706775.3
16675616
36585123
96656757
3.4720934e+08
2.3796482e+09
1222.0301
3083.7755
1298.3026
1102.8783
1154.8208
1255.506
1504.1279
2674.1515
4590.2382
14038.258
36062.683
81323.956
150268.09
226901.93
297481.52
357685.37
414028
488706.74
625585.56
891935.98
1365063.3
2098880
3208380
5077168.7
8707410.2
16678711
36596026
96691129
3.4734338e+08
2.380425e+09
1221.9774
3082.2312
1295.8065
1102.3816
1153.5524
1252.8034
1496.6761
2643.5881
4590.1649
14161.82
36323.771
81627.956
150558.23
227205.2
297749.44
357859.08
414154.83
488947.48
626207.14
893341.24
1367366.9
2101499.3
3210603.5
5078917.2
8709486
16682948
36606320
96718871
3.4744008e+08
2.3811135e+09
1221.9423
3080.7569
1293.6351
1101.9487
1152.3697
1250.3111
1489.745
2610.9161
4587.331
14273.867
36568.609
81898.219
150779.87
227414.95
297925.11
357955.2
414202.44
489059.14
626560.91
894229.11
1368898.6
2103311.1
3212221.9
5080262.4
8711084.4
16686106
36613946
96739548
3.4751307e+08
2.3816142e+09
1221.9228
3079.4146
1291.7739
1101.5729
1151.2737
1248.0332
1483.3888
2577.3946
4582.6777
14375.164
36800.173
82145.183
150957.14
227563.09
298039.89
358001.14
414199.75
489084.38
626733.37
894763.18
1369899
2104570.8
3213451.2
5081404.6
8712462.7
16688587
36619548
96754320
3.4756434e+08
2.3819806e+09
1221.9164
3078.2382
1290.192
1101.2515
1150.2641
1245.9695
1477.6353
2544.1124
4577.0895
14466.13
37019.12
82373.447
151104.43
227670.36
298115.42
358017.5
414169.19
489055.59
626783.1
895043.58
1370495.1
2105371.3
3214301
5082284.4
8713575.2
16690493
36623613
96764615
3.4759879e+08
2.3822405e+09
1221.9206
3077.2443
1288.8562
1100.9815
1149.3415
1244.1178
1472.4673
2511.9644
4571.3477
14547.166
37224.886
82584.372
151230.42
227750.53
298166.03
358017.69
414125.16
488994.17
626750.26
895143.48
1370787.4
2105793.6
3214779.9
5082831.7
8714306
16691702
36626022
96770355
3.4761659e+08
2.3824004e+09
1221.9329
3076.4382
1287.7362
1100.7571
1148.5021
1242.4611
1467.7999
2481.5745
4566.2909
14618.759
37416.376
82777.629
151340.27
227812.96
298201.55
358010.74
414077.67
488915.85
626665.53
895122.99
1370872.5
2105942.7
3214957.7
5083063.2
8714649.5
16692255
36627001
96772300
3.4762069e+08
2.3824752e+09
1221.9503
3075.8183
1286.8082
1100.5678
1147.748
1241.0028
1463.6471
2453.2088
4562.5494
14681.529
37592.483
82952.192
151437.03
227864.08
298228.62
358002.18
414032.38
488830.5
626548.65
895022.81
1370820.5
2105904.3
3214897.7
5082993.4
8714582
16692136
36626618
96770845
3.4761322e+08
2.382476e+09
1221.9674
3075.3924
1286.0455
1100.3979
1147.08
1239.7411
1460.0186
2427.0651
4560.3044
14736.245
37752.359
83107.006
151522.5
227908.4
298251.89
357995.49
413992.77
488745.44
626415.67
894878
1370700.5
2105789
3214737.4
5082759
8714241.8
16691558
36625358
96767302
3.4759889e+08
2.3824255e+09
1221.9713
3075.1737
1285.4228
1100.2282
1146.499
1238.6685
1456.9021
2403.3806
4559.3592
14784.133
37895.541
83241.396
151597.82
227949.02
298274.54
357992.76
413960.54
488665.74
626277.74
894708.72
1370547.7
2105662.1
3214585
5082510.7
8713813.3
16690770
36623699
96762978
3.4758297e+08
2.3823522e+09
1221.9637
3075.1302
1284.897
1100.0874
1145.9916
1237.7791
1454.3026
2382.2308
4559.5313
14826.336
38022.111
83355.455
151664.18
227988.66
298299.56
357996.02
413937.27
488596.21
626142.14
894526.26
1370377
2105548.4
3214505.3
5082380.3
8713512.4
16690097
36622156
96758862
3.4756773e+08
2.3822812e+09
1221.9471
3075.2287
1284.455
1099.9704
1145.5501
1237.0365
1452.1124
2363.7237
4560.8616
14863.558
38132.61
83449.856
151722.44
228028.86
298328.49
358006.13
413922.69
488535.49
626008.75
894328.27
1370170.6
2105397
3214409.8
5082272.6
8713261.8
16689466
36620588
96754528
3.4755138e+08
2.3822103e+09
1221.9234
3075.4356
1284.0834
1099.8719
1145.167
1236.4387
1450.3451
2347.6004
4563.3065
14896.465
38227.876
83525.515
151772.61
228069.23
298360.75
358021.6
413916.4
488485.82
625886.36
894131.59
1369947.3
2105212.6
3214284.2
5082158.2
8713043.8
16688915
36619145
96750340
3.4753485e+08
2.382143e+09
1221.8947
3075.7197
1283.7685
1099.787
1144.834
1235.9568
1448.9219
2333.7433
4566.7534
14925.672
38309.007
83583.684
151814.41
228108.28
298393.4
358039.66
413916.74
488448.65
625782.59
893951.56
1369725.6
2105008.9
3214121.2
5082000.9
8712788.1
16688340
36617712
96746214
3.4751857e+08
2.3820773e+09
1221.8629
3076.0522
1283.4965
1099.7115
1144.5429
1235.5714
1447.7933
2321.9457
4571.064
14951.724
38377.345
83626.121
151848.08
228144.65
298424.34
358058.16
413922
488424.49
625705.21
893808.71
1369540.2
2104828.3
3213967
5081842.8
8712529.5
16687763
36616259
96742039
3.4750201e+08
2.3820124e+09
1221.8291
3076.4069
1283.2539
1099.6414
1144.286
1235.2639
1446.9117
2311.9902
4576.0771
14975.09
38434.335
83654.801
151874.15
228175.95
298451.51
358073.78
413927.52
488408.62
625651.01
893704.79
1369397.7
2104675
3213811.1
5081652.8
8712215.7
16687113
36614727
96737764
3.4748538e+08
2.3819474e+09
1221.7944
3076.762
1283.0284
1099.574
1144.0566
1235.0189
1446.2357
2303.6549
4581.625
14996.176
38481.471
83671.907
151892.72
228201.82
298473.24
358084.15
413929.77
488397.51
625619.04
893648
1369322.8
2104592.8
3213719.6
5081521.6
8711968.5
16686564
36613376
96733931
3.4747028e+08
2.3818899e+09
1221.7597
3077.1
1282.8097
1099.5072
1143.849
1234.8241
1445.7301
2296.7205
4587.4709
15015.423
38520.199
83679.689
151904.15
228221.82
298488.43
358086.88
413924.35
488384.29
625598.2
893624.42
1369300.1
2104563.8
3213661.1
5081401.4
8711723.8
16686040
36612135
96730413
3.4745643e+08
2.3818377e+09
1221.7256
3077.4075
1282.5892
1099.44
1143.6586
1234.6697
1445.3662
2290.9834
4593.4455
15033.149
38551.863
83680.491
151909.06
228236.33
298496.93
358081.47
413909.79
488366.74
625586.15
893635.78
1369342.9
2104615.7
3213682.3
5081347.7
8711530.6
16685557
36610937
96727030
3.4744311e+08
2.3817887e+09
1221.6926
3077.675
1282.3606
1099.3718
1143.4819
1234.5487
1445.1208
2286.2605
4599.4658
15049.537
38577.643
83675.486
151909.03
228245.75
298498.79
358067.71
413885.39
488341.25
625574
893667.22
1369432
2104725.8
3213750.6
5081317.5
8711335.4
16685050
36609709
96723634
3.4743008e+08
2.3817409e+09
1221.6609
3077.8964
1282.1193
1099.3029
1143.3158
1234.4555
1444.9755
2282.3892
4605.4732
15064.72
38598.59
83666.148
151904.68
228250.46
298494.57
358046.32
413852.07
488307.4
625559.3
893715.44
1369570.5
2104912.5
3213906
5081374.3
8711234.7
16684671
36608687
96720689
3.4741847e+08
2.3817002e+09
1221.6309
3078.0684
1281.8628
1099.2335
1143.1585
1234.3865
1444.9153
2279.2257
4611.4323
15078.794
38615.587
83653.111
151896.84
228250.84
298484.56
358017.71
413809.83
488263.12
625533.92
893762.1
1369729.9
2105143.4
3214106
5081457.9
8711143.9
16684310
36607754
96718017
3.4740806e+08
2.3816617e+09
1221.6025
3078.1901
1281.5901
1099.1642
1143.0084
1234.3387
1444.9284
2276.6456
4617.3233
15091.86
38629.495
83636.96
151886.41
228247.72
298469.89
357983.38
413760.8
488211.18
625501.68
893811.43
1369918.7
2105440.8
3214399.5
5081631.4
8711113
16683969
36606801
96715358
3.4739796e+08
2.3816233e+09
1221.576
3078.2621
1281.3016
1099.0957
1142.8644
1234.31
1445.0052
2274.5463
4623.1306
15104.014
38640.751
83618.277
151873.8
228241.51
298451.18
357944.21
413705.89
488151.62
625459.1
893851.09
1370109.2
2105763.6
3214738.7
5081851.5
8711106
16683615
36605807
96712637
3.4738804e+08
2.381583e+09
1221.5514
3078.2882
1280.9968
1099.0277
1142.7255
1234.2982
1445.1366
2272.8451
4628.8403
15115.321
38649.694
83597.509
151859.39
228232.72
298429.29
357901.59
413646.99
488086.65
625408.56
893881.76
1370298.8
2106109.8
3215140.6
5082171.1
8711224.3
16683408
36604999
96710268
3.4737913e+08
2.381548e+09
1221.5283
3078.2741
1280.6724
1098.9596
1142.5905
1234.3011
1445.3151
2271.4755
4634.441
15125.82
38656.383
83574.838
151843.13
228221.21
298404.21
357855.59
413583.81
488014.72
625343.59
893886.54
1370452.2
2106419.8
3215512.2
5082468.3
8711320.8
16683168
36604133
96707709
3.4736956e+08
2.3815069e+09
1221.5072
3078.2269
1280.3278
1098.8914
1142.4594
1234.3179
1445.5361
2270.3866
4639.9273
15135.593
38661.017
83550.527
151825.45
228207.76
298377.2
357808.18
413519.34
487940.49
625273.66
893881.6
1370594.1
2106727
3215900.7
5082796.9
8711445.3
16682930
36603213
96705025
3.4735962e+08
2.3814622e+09
1221.4882
3078.1532
1279.9641
1098.8233
1142.3324
1234.3478
1445.7952
2269.5418
4645.2904
15144.72
38663.651
83524.995
151806.77
228192.96
298349.17
357760.65
413455.32
487865.71
625200.33
893866.71
1370716.7
2107008.9
3216264.8
5083104.2
8711540.4
16682627
36602141
96701964
3.4734855e+08
2.3814113e+09
1221.469
3078.0578
1279.5831
1098.754
1142.2088
1234.3889
1446.0875
2268.909
4650.5243
15153.297
38664.115
83498.398
151787.13
228176.9
298320.34
357713.39
413392.41
487791.68
625126.38
893847.71
1370831.4
2107283
3216633.2
5083439.3
8711692.5
16682407
36601158
96698975
3.4733734e+08
2.38136e+09
1221.4493
3077.9446
1279.1875
1098.6825
1142.0884
1234.4397
1446.4075
2268.4668
4655.6347
15161.18
38662.603
83470.649
151766.28
228159.26
298290.25
357665.81
413329.57
487716.1
625045.91
893813.24
1370918.5
2107518.6
3216950.8
5083717.2
8711790
16682143
36600156
96695921
3.4732582e+08
2.3813041e+09
1221.4288
3077.8165
1278.781
1098.6074
1141.9715
1234.4995
1446.7526
2268.1918
4660.6423
15168.341
38659.279
83442.013
151744.49
228140.35
298259.27
357618.19
413267.49
487641.74
624966.45
893778.9
1371006
2107757.3
3217276.5
5084000.3
8711873.1
16681816
36598965
96692423
3.4731281e+08
2.3812405e+09
1221.4076
3077.676
1278.3676
1098.526
1141.8584
1234.5677
1447.1216
2268.0613
4665.5194
15174.812
38654.358
83412.701
151721.9
228120.29
298227.33
357570.12
413205.13
487566.98
624885.45
893739.37
1371081.9
2107975.9
3217569.2
5084234.2
8711885.8
16681383
36597617
96688589
3.4729886e+08
2.381171e+09
1221.3857
3077.5252
1277.9498
1098.436
1141.7497
1234.6447
1447.5129
2268.0571
4670.2679
15180.616
38648.047
83382.951
151698.78
228099.36
298194.66
357521.83
413143.07
487493.35
624807.4
893705.98
1371169.5
2108214.1
3217895.9
5084518.8
8711965.1
16681032
36596345
96684867
3.4728514e+08
2.3811035e+09
1221.3632
3077.3654
1277.5247
1098.3407
1141.6448
1234.73
1447.9256
2268.1639
4674.8765
15185.788
38640.494
83352.829
151675.06
228077.31
298160.7
357472.29
413079.7
487417.44
624724.41
893662.58
1371239.7
2108427.1
3218185.7
5084759.9
8712007.8
16680673
36595152
96681336
3.4727203e+08
2.3810359e+09
1221.3402
3077.1976
1277.0875
1098.246
1141.5421
1234.8232
1448.3587
2268.3699
4679.3484
15190.382
38631.913
83322.606
151651.13
228054.61
298125.95
357421.99
413015.84
487341.94
624644.23
893625.98
1371323.4
2108662.5
3218508.6
5085034.3
8712064
16680279
36593810
96677458
3.4725774e+08
2.3809639e+09
1221.3166
3077.0225
1276.6387
1098.1521
1141.4415
1234.9239
1448.8105
2268.6654
4683.6847
15194.436
38622.44
83292.383
151627.06
228031.31
298090.37
357370.68
412950.61
487264.94
624562.22
893586.7
1371400.7
2108883.7
3218804.3
5085266.5
8712057.7
16679788
36592321
96673273
3.4724264e+08
2.3808873e+09
1221.2926
3076.8406
1276.1787
1098.0593
1141.343
1235.0317
1449.2797
2269.041
4687.8834
15197.989
38612.183
83262.246
151602.99
228007.63
298054.31
357318.9
412885
487188.27
624483.29
893556.57
1371497.3
2109136.2
3219149.9
5085574
8712160.6
16679453
36591032
96669447
3.4722846e+08
2.3808174e+09
1221.2681
3076.6526
1275.708
1097.9677
1141.2464
1235.1464
1449.7658
2269.4875
4691.9448
15201.051
38601.181
83232.099
151578.68
227983.18
298017.14
357265.74
412817.47
487108.02
624397.13
893514.57
1371576
2109363.7
3219455.9
5085832.1
8712221.6
16679114
36589861
96665916
3.4721521e+08
2.3807487e+09
1221.2433
3076.4587
1275.2271
1097.8775
1141.1519
1235.268
1450.2684
2269.9974
4695.8738
15203.662
38589.557
83202.118
151554.43
227958.42
297979.5
357212
412749.39
487027.8
624313.14
893480.19
1371673
2109622.9
3219806.4
5086132.2
8712297
16678730
36588507
96661981
3.4720069e+08
2.3806754e+09
1221.218
3076.2593
1274.7364
1097.7889
1141.0593
1235.3962
1450.7864
2270.5657
4699.6728
15205.844
38577.378
83172.317
151530.23
227933.34
297941.31
357157.52
412680.2
486945.81
624226.69
893442.74
1371764.4
2109870.7
3220133
5086390.2
8712308.5
16678251
36587033
96657809
3.4718558e+08
2.3805985e+09
1221.1923
3076.0543
1274.2363
1097.7019
1140.9686
1235.5306
1451.3189
2271.187
4703.3434
15207.621
38564.709
83142.75
151506.2
227908.17
297903.03
357103.01
412611.16
486864.56
624143.45
893414.55
1371877.1
2110155.7
3220519
5086733
8712434.5
16677927
36585756
96654023
3.4717153e+08
2.3805297e+09
1221.1662
3075.8439
1273.727
1097.6169
1140.8797
1235.6712
1451.8654
2271.8549
4706.8854
15208.999
38551.549
83113.288
151482.06
227882.5
297864.02
357047.6
412540.52
486779.82
624052.48
893372.38
1371969.4
2110413.4
3220864.2
5087023.1
8712503.9
16677559
36584503
96650312
3.4715777e+08
2.3804586e+09
1221.1398
3075.628
1273.2089
1097.5339
1140.7928
1235.818
1452.4259
2272.5652
4710.3047
15210.007
38537.987
83084.073
151458.08
227856.72
297824.88
356992.11
412469.95
486695.54
623963.76
893337.24
1372078.7
2110701.8
3221255.9
5087364
8712611
16677195
36583170
96646411
3.4714329e+08
2.3803863e+09
1221.1129
3075.4065
1272.6825
1097.4529
1140.7076
1235.9706
1452.9993
2273.3153
4713.603
15210.663
38524.062
83055.101
151434.23
227830.81
297785.52
356936.43
412399.08
486610.31
623872.62
893297.56
1372179.2
2110975.2
3221621.9
5087665.1
8712653.7
16676719
36581648
96642101
3.4712772e+08
2.380308e+09
1221.0856
3075.1792
1272.1481
1097.374
1140.6243
1236.1287
1453.5844
2274.1031
4716.7835
15210.982
38509.805
83026.396
151410.56
227804.9
297746.27
356881.12
412329.02
486526.4
623784.44
893265.38
1372297
2111280.4
3222042.2
5088050.2
8712820.4
16676423
36580367
96638233
3.471133e+08
2.3802376e+09
1221.0579
3074.9461
1271.6066
1097.2971
1140.5427
1236.2921
1454.1807
2274.9248
4719.851
15210.987
38495.112
82997.74
151386.7
227778.45
297706.33
356825.12
412257.61
486439.58
623688.55
893217.64
1372390.3
2111553.8
3222418.7
5088384.2
8712944.6
16676122
36579201
96634643
3.4709972e+08
2.3801676e+09
1221.0297
3074.707
1271.0585
1097.222
1140.4628
1236.4606
1454.7877
2275.7773
4722.8101
15210.702
38480.113
82969.3
151362.94
227751.87
297666.27
356769.24
412186.7
486354.11
623595.83
893176.27
1372497.6
2111853.1
3222834.7
5088757.3
8713082.1
16675776
36577844
96630630
3.4708483e+08
2.3800927e+09
1221.0011
3074.4621
1270.5051
1097.1482
1140.3848
1236.634
1455.4047
2276.6572
4725.6598
15210.121
38464.899
82941.137
151339.31
227725.13
297625.97
356713.24
412115.95
486268.65
623502.23
893131.63
1372596.1
2112135.2
3223220.2
5089084.3
8713155.1
16675338
36576381
96626407
3.4706944e+08
2.3800143e+09
1220.972
3074.2112
1269.9477
1097.075
1140.3086
1236.812
1456.0307
2277.562
4728.4064
15209.268
38449.447
82913.25
151315.88
227698.41
297585.75
356657.58
412046.15
486185.46
623413.85
893097.47
1372714.1
2112450
3223660.7
5089492.6
8713339.2
16675049
36575102
96622562
3.4705515e+08
2.3799442e+09
1220.9426
3073.9545
1269.3884
1097.0014
1140.2343
1236.9945
1456.6652
2278.4884
4731.0512
15208.144
38433.726
82885.485
151292.32
227671.22
297544.83
356601.14
411975.23
486100.13
623319.95
893051.25
1372810.5
2112733
3224054.7
5089847
8713478.2
16674751
36573920
96618922
3.4704146e+08
2.3798731e+09
1220.9128
3073.6924
1268.8292
1096.9257
1140.1622
1237.1814
1457.3082
2279.4336
4733.6026
15206.776
38417.805
82857.978
151268.9
227643.93
297503.78
356544.63
411904.66
486016.46
623230.82
893015
1372925.1
2113044.7
3224489.6
5090241.6
8713636.2
16674424
36572602
96615010
3.4702691e+08
2.3798e+09
1220.8826
3073.4252
1268.2725
1096.8458
1140.0926
1237.3728
1457.9589
2280.3954
4736.0658
15205.179
38401.703
82830.705
151245.56
227616.45
297462.43
356487.79
411833.75
485932.46
623141.24
892977.57
1373034.2
2113341.3
3224894.6
5090591.1
8713727.1
16673990
36571111
96610713
3.4701132e+08
2.3797209e+09
1220.8522
3073.1531
1267.7198
1096.7594
1140.026
1237.5688
1458.6175
2281.3702
4738.4453
15203.369
38385.443
82803.685
151222.33
227588.93
297421.08
356431.09
411763.39
485850.15
623056.48
892951.49
1373165.2
2113672.5
3225352.7
5091017.7
8713930.2
16673719
36569853
96606898
3.4699713e+08
2.3796512e+09
1220.8215
3072.8765
1267.1706
1096.6656
1139.9626
1237.7696
1459.2844
2282.3533
4740.7437
15201.346
38368.994
82776.759
151198.92
227560.87
297379
356373.5
411691.62
485765.24
622965.92
892914.6
1373279.2
2113979.7
3225774.1
5091401.4
8714102.7
16673465
36568734
96603376
3.4698377e+08
2.3795819e+09
1220.7905
3072.5954
1266.6211
1096.5667
1139.9022
1237.975
1459.9593
2283.3436
4742.97
15199.139
38352.427
82750.066
151175.56
227532.63
297336.72
356315.77
411619.92
485681.4
622879.2
892887.2
1373412.6
2114318.4
3226237.7
5091822
8714283.2
16673164
36567434
96599493
3.4696934e+08
2.3795092e+09
1220.7594
3072.3088
1266.065
1096.4694
1139.8429
1238.1839
1460.6406
2284.3416
4745.1287
15196.764
38335.764
82723.595
151152.21
227504.15
297294.13
356257.73
411547.78
485596.62
622791.17
892857.89
1373541.4
2114645.6
3226676.8
5092201.8
8714400.8
16672761
36566000
96595316
3.4695415e+08
2.3794319e+09
1220.7281
3072.0167
1265.5019
1096.3741
1139.7848
1238.3961
1461.3271
2285.3465
4747.2214
15194.23
38319.027
82697.359
151128.92
227475.55
297251.49
356199.86
411476.2
485513.14
622707.11
892838.44
1373691
2115007.8
3227169.9
5092654.9
8714615
16672489
36564750
96591563
3.4694025e+08
2.3793636e+09
1220.6968
3071.7189
1264.9321
1096.2809
1139.7276
1238.6113
1462.0187
2286.354
4749.2475
15191.529
38302.176
82671.203
151105.36
227446.34
297208.07
356141.15
411403.38
485427.34
622617.32
892808.21
1373823.9
2115348.3
3227632.2
5093073
8714798.7
16672210
36563555
96587891
3.4692655e+08
2.3792928e+09
1220.6655
3071.4157
1264.3554
1096.1899
1139.6712
1238.8297
1462.7155
2287.3616
4751.2131
15188.681
38285.267
82645.253
151081.77
227416.83
297164.35
356082.3
411330.72
485342.47
622530.63
892785.57
1373972.6
2115715.3
3228132.7
5093528.9
8715004
16671914
36562272
96584049
3.4691226e+08
2.3792213e+09
1220.6342
3071.1074
1263.7723
1096.1012
1139.6158
1239.0508
1463.4165
2288.3684
4753.1207
15185.692
38268.316
82619.497
151058.09
227386.93
297120.16
356023.08
411257.74
485257.06
622442.6
892760.16
1374115.1
2116070.4
3228612
5093953.3
8715159.3
16671531
36560823
96579828
3.4689694e+08
2.3791444e+09
1220.603
3070.7941
1263.183
1096.0148
1139.561
1239.2745
1464.1211
2289.373
4754.9721
15182.566
38251.331
82593.953
151034.37
227356.74
297075.7
355963.84
411185.22
485172.96
622357.92
892742.84
1374274.2
2116453.2
3229135.8
5094443.5
8715409.2
16671283
36559563
96575983
3.4688267e+08
2.3790743e+09
1220.5721
3070.4761
1262.5877
1095.9307
1139.5071
1239.5009
1464.8296
2290.372
4756.7668
15179.29
38234.27
82568.47
151010.3
227325.76
297030.21
355903.56
411111.39
485086.55
622267.54
892714.49
1374416.9
2116815.7
3229631.6
5094905.7
8715651.4
16671086
36558495
96572538
3.4686954e+08
2.3790066e+09
1220.5412
3070.1538
1261.9869
1095.8487
1139.4538
1239.7302
1465.5428
2291.3638
4758.5113
15175.88
38217.185
82543.184
150986.12
227294.34
296984.14
355842.78
411037.5
485001.24
622180.65
892693.62
1374575.2
2117203.9
3230163.2
5095397.7
8715890.1
16670813
36557198
96568616
3.4685498e+08
2.3789332e+09
1220.5106
3069.8276
1261.3811
1095.7689
1139.4013
1239.9625
1466.2602
2292.3485
4760.2081
15172.339
38200.08
82518.08
150961.79
227262.36
296937.28
355781.16
410962.85
484915.33
622092.83
892670.38
1374726.5
2117578.6
3230670
5095851.9
8716077.3
16670473
36555829
96564544
3.4684009e+08
2.3788574e+09
1220.4803
3069.4979
1260.7711
1095.6908
1139.3497
1240.1977
1466.9818
2293.3269
4761.8592
15168.668
38182.966
82493.194
150937.4
227230
296889.91
355719.11
410888.24
484830.89
622009.69
892657.98
1374898.3
2117986.7
3231230.9
5096381.5
8716359.3
16670247
36554591
96560766
3.4682613e+08
2.3787885e+09
1220.4502
3069.1652
1260.1583
1095.6137
1139.2992
1240.4364
1467.7082
2294.2979
4763.4636
15164.851
38165.789
82468.37
150912.65
227196.79
296841.31
355655.57
410811.7
484743.65
621920.94
892634.3
1375051.4
2118369
3231756.3
5096877.2
8716631
16670072
36553547
96557372
3.4681323e+08
2.3787213e+09
1220.4203
3068.8299
1259.5441
1095.5369
1139.2502
1240.6789
1468.4402
2295.2629
4765.0243
15160.894
38148.578
82443.706
150887.76
227163.11
296792.04
355591.06
410734.49
484656.94
621835.9
892619.45
1375221.5
2118777.8
3232318.2
5097405.4
8716905.5
16669832
36552292
96553534
3.4679891e+08
2.3786498e+09
1220.3903
3068.4917
1258.9302
1095.459
1139.2027
1240.9254
1469.1777
2296.2235
4766.5393
15156.774
38131.279
82419.069
150862.5
227128.61
296741.65
355525.24
410655.72
484568.32
621748.44
892601.61
1375383.9
2119166.8
3232842.5
5097878.5
8717104.9
16669483
36550871
96549323
3.4678355e+08
2.3785726e+09
1220.3605
3068.1514
1258.3189
1095.3791
1139.1576
1241.1772
1469.9229
2297.1821
4768.0151
15152.499
38113.922
82394.565
150837.09
227093.68
296690.76
355458.88
410576.68
484480.61
621665.62
892596.78
1375572.5
2119597.4
3233427.3
5098434.7
8717417.5
16669291
36549665
96545571
3.4676959e+08
2.3785047e+09
1220.3311
3067.81
1257.7126
1095.296
1139.116
1241.4359
1470.6791
2298.1407
4769.4543
15148.058
38096.478
82370.131
150811.39
227058.07
296638.9
355391.04
410495.44
484389.36
621576.23
892581.37
1375746
2120008.2
3233980.5
5098955.8
8717719.3
16669164
36548706
96542347
3.4675713e+08
2.3784401e+09
1220.3017
3067.4669
1257.1119
1095.2082
1139.0786
1241.7029
1471.4494
2299.1015
4770.8611
15143.445
38078.951
82345.842
150785.55
227021.99
296586.47
355322.61
410413.6
484298.33
621490.06
892576.06
1375943
2120458.5
3234587
5099521.7
8718022.4
16668951
36547484
96538584
3.4674309e+08
2.3783701e+09
1220.2721
3067.1217
1256.5164
1095.1152
1139.0462
1241.98
1472.2371
2300.0706
4772.2416
15138.662
38061.23
82321.586
150759.43
226985.29
296533.25
355253.21
410330.45
484205.24
621400.61
892566.18
1376132.4
2120895.1
3235167.4
5100046
8718264.5
16668648
36546152
96534579
3.4672844e+08
2.3782961e+09
1220.2423
3066.7729
1255.9241
1095.0186
1139.0197
1242.2683
1473.0441
2301.0572
4773.5903
15133.69
38043.39
82297.341
150733.13
226948.17
296479.5
355183.47
410247.24
484112.77
621314.23
892565.44
1376343
2121370.5
3235813.5
5100664.8
8718630.3
16668503
36545014
96531000
3.4671507e+08
2.3782319e+09
1220.2121
3066.4185
1255.3317
1094.9221
1138.9995
1242.569
1473.8723
2302.0697
4774.8897
15128.441
38025.36
82273.086
150706.41
226910.23
296424.69
355112.48
410161.94
484016.42
621219.14
892548.05
1376526.6
2121808.5
3236408.2
5101228.2
8718955
16668359
36543983
96527599
3.4670209e+08
2.3781658e+09
1220.181
3066.0545
1254.7366
1094.8292
1138.9855
1242.8834
1474.7249
2303.1165
4776.1371
15122.871
38006.987
82248.888
150679.41
226871.64
296369.4
355041.11
410076.45
483920.61
621126.79
892538.12
1376726.7
2122274.5
3237042.7
5101828.2
8719291.2
16668171
36542786
96523857
3.4668797e+08
2.3780971e+09
1220.1492
3065.6799
1254.1394
1094.7412
1138.9793
1243.2147
1475.6079
2304.2072
4777.3352
15116.96
37988.264
82224.74
150652.23
226832.45
296313.38
354969.12
409990.5
483823.98
621032.7
892524.93
1376919.4
2122724.9
3237647.7
5102381.7
8719554
16667861
36541386
96519682
3.4667275e+08
2.3780219e+09
1220.1169
3065.2931
1253.5413
1094.6591
1138.9826
1243.5665
1476.5282
2305.3526
4778.4781
15110.668
37969.171
82200.792
150625.18
226793.13
296257.15
354897.14
409905.17
483729.34
620943.8
892523.85
1377136.6
2123216.3
3238318.2
5103032.4
8719955.3
16667747
36540254
96516033
3.46659e+08
2.3779568e+09
1220.0837
3064.8912
1252.9426
1094.5833
1138.9968
1243.9419
1477.492
2306.5625
4779.545
15103.898
37949.516
82176.795
150597.81
226752.95
296199.68
354823.8
409818.04
483631.51
620847.32
892507.53
1377329.2
2123675
3238943.4
5103635.5
8720333.3
16667681
36539346
96512856
3.4664656e+08
2.3778939e+09
1220.0495
3064.4725
1252.3445
1094.5142
1139.0236
1244.3447
1478.5066
2307.851
4780.5224
15096.578
37929.225
82152.862
150570.44
226712.33
296141.56
354749.88
409730.82
483535.01
620755.29
892500.93
1377541.4
2124166.7
3239614.7
5104278.2
8720710.9
16667529
36538164
96509109
3.4663243e+08
2.3778249e+09
1220.0142
3064.0358
1251.7482
1094.4524
1139.0652
1244.7787
1479.5792
2309.2351
4781.3883
15088.617
37908.153
82128.952
150543.05
226671.19
296082.58
354674.98
409642.69
483437.76
620662.16
892491.66
1377745.3
2124639.5
3240251.1
5104869.1
8721018.6
16667283
36536880
96505145
3.4661777e+08
2.3777521e+09
1219.9777
3063.5799
1251.1555
1094.3986
1139.1236
1245.2478
1480.7174
2310.7334
4782.1148
15079.907
37886.148
82105.069
150515.83
226629.82
296023.15
354599.65
409554.69
483342.36
620574.91
892495.64
1377974.2
2125153
3240953.2
5105553
8721448.3
16667194
36535786
96501610
3.4660444e+08
2.3776894e+09
1219.9402
3063.1041
1250.568
1094.3535
1139.2012
1245.7567
1481.93
2312.3645
4782.6666
15070.313
37862.96
82080.997
150488.48
226587.73
295962.45
354522.66
409464.47
483243.61
620480.96
892486.5
1378180.5
2125633.2
3241606.8
5106184.8
8721846.5
16667134
36534870
96498410
3.4659198e+08
2.3776264e+09
1219.9017
3062.6085
1249.988
1094.3174
1139.3002
1246.3102
1483.2266
2314.1499
4783.01
15059.717
37838.436
82056.811
150461.37
226545.45
295901.2
354444.92
409373.7
483145.77
620391.9
892489.37
1378409.7
2126148.9
3242308
5106859.2
8722256
16667018
36533762
96494841
3.4657842e+08
2.3775611e+09
1219.8622
3062.0934
1249.4175
1094.2909
1139.4231
1246.9126
1484.6157
2316.1147
4783.1011
15047.975
37812.339
82032.396
150434.49
226502.99
295839.32
354366.2
409281.62
483046.44
620301.29
892490.52
1378633.1
2126648.6
3242976.6
5107483.3
8722590.1
16666782
36532454
96490817
3.4656361e+08
2.3774885e+09
1219.822
3061.5595
1248.8585
1094.2737
1139.5721
1247.5684
1486.106
2318.2853
4782.8901
15034.931
37784.419
82007.654
150407.96
226460.61
295777.26
354287.13
409189.52
482948
620215.2
892504.24
1378882.4
2127190
3243708.6
5108196.8
8723048.5
16666723
36531401
96487354
3.4655049e+08
2.3774271e+09
1219.781
3061.0079
1248.3131
1094.2655
1139.7496
1248.282
1487.7073
2320.6878
4782.322
15020.408
37754.353
81982.3
150381.53
226417.94
295714.41
354206.76
409095.26
482845.67
620121.58
892505.16
1379112.7
2127706
3244404
5108872.6
8723492.2
16666714
36530548
96484258
3.465383e+08
2.3773661e+09
1219.7396
3060.4403
1247.7824
1094.2659
1139.9575
1249.0576
1489.4287
2323.3516
4781.3457
15004.256
37721.921
81956.347
150355.54
226375.61
295651.65
354126.03
409000.48
482743.38
620030.6
892514.92
1379363.1
2128254.7
3245142.3
5109581.6
8723931
16666624
36529466
96480729
3.4652484e+08
2.3773014e+09
1219.6979
3059.8583
1247.2668
1094.2742
1140.1975
1249.8984
1491.2784
2326.3082
4779.9035
14986.307
37686.835
81929.592
150330
226333.66
295589.05
354045.14
408905.05
482639.52
619936.86
892521.06
1379607.1
2128790.2
3245853.7
5110247.8
8724305.3
16666435
36528228
96476831
3.4651037e+08
2.3772305e+09
1219.656
3059.2625
1246.7657
1094.2904
1140.4706
1250.8073
1493.2645
2329.589
4777.9382
14966.398
37648.815
81901.871
150305
226292.42
295527.17
353965.1
408810.41
482536.75
619846.37
892536.29
1379871.9
2129362.1
3246621
5110987.4
8724772.8
16666368
36527174
96473397
3.4649739e+08
2.3771696e+09
1219.6142
3058.653
1246.2776
1094.3157
1140.7774
1251.7862
1495.3941
2333.2255
4775.3922
14944.361
37607.537
81872.838
150280.33
226251.65
295465.58
353885.2
408715.17
482431.48
619749.3
892539.35
1380119
2129912.5
3247361
5111700.8
8725226.1
16666321
36526207
96470058
3.4648456e+08
2.3771057e+09
1219.5726
3058.029
1245.7999
1094.3522
1141.1172
1252.8352
1497.6713
2337.2533
4772.2174
14920.065
37562.78
81842.374
150256.21
226211.85
295405.03
353806.46
408621.15
482327.57
619654.89
892548.83
1380380.6
2130488
3248136.5
5112446.5
8725690.2
16666238
36525127
96466531
3.4647113e+08
2.3770412e+09
1219.5312
3057.3903
1245.3304
1094.4017
1141.4884
1253.9527
1500.0965
2341.7104
4768.3684
14893.385
37514.293
81810.182
150232.53
226173.06
295345.56
353728.97
408528.26
482223.65
619558.59
892553.39
1380632.7
2131048.5
3248890
5113163.4
8726111.7
16666078
36523883
96462603
3.4645659e+08
2.3769709e+09
1219.4901
3056.7354
1244.8688
1094.4642
1141.889
1255.1359
1502.6683
2346.6311
4763.8093
14864.22
37461.857
81775.967
150209.22
226135.44
295287.51
353653.35
408437.71
482122.1
619465.44
892563.59
1380896.5
2131630.2
3249678.8
5113932.2
8726606.1
16666021