/*--------------------------------*- C++ -*----------------------------------*\
| =========                 |                                                 |
| \\      /  F ield         | OpenFOAM: The Open Source CFD Toolbox           |
|  \\    /   O peration     | Version:  v2012                                 |
|   \\  /    A nd           | Website:  www.openfoam.com                      |
|    \\/     M anipulation  |                                                 |
\*---------------------------------------------------------------------------*/
FoamFile
{
    version     2.0;
    format      ascii;
    class       volScalarField;
    location    "50";
    object      p;
}
// * * * * * * * * * * * * * * * * * * * * * * * * * * * * * * * * * * * * * //

dimensions      [1 -1 -2 0 0 0 0];


internalField   nonuniform List<scalar> 
24000
(
2509008
2509007.9
2509007.1
2509005.9
2509004.3
2509001.8
2508998.2
2508993.7
2508987.4
2508980.6
2508974.2
2508968.8
2508965
2508962.9
2508961.9
2508961.4
2508961.3
2508961.3
2508961.3
2508961.3
2508961.4
2508961.4
2508961.4
2508961.4
2508961.4
2508961.5
2508961.5
2508961.5
2508961.5
2508961.5
2509031.4
2509031.4
2509030.5
2509029.2
2509027.7
2509025.9
2509023.8
2509022
2509020
2509018.3
2509016.9
2509015.8
2509015.3
2509015.1
2509015.2
2509015.4
2509015.7
2509015.9
2509016.1
2509016.3
2509016.4
2509016.5
2509016.6
2509016.6
2509016.6
2509016.7
2509016.7
2509016.7
2509016.7
2509016.6
2509055
2509054.5
2509053.6
2509052.1
2509050.8
2509049.1
2509047.2
2509045.4
2509043.7
2509042.2
2509041
2509040
2509039.3
2509038.9
2509038.6
2509038.4
2509038.3
2509038.3
2509038.2
2509038.2
2509038.2
2509038.2
2509038.2
2509038.1
2509038.1
2509038.1
2509038.1
2509038.1
2509038.1
2509038.1
2509078.8
2509078.2
2509077.3
2509075.9
2509074.8
2509073.5
2509072.2
2509070.8
2509069.8
2509068.9
2509068.1
2509067.6
2509067.2
2509066.9
2509066.8
2509066.7
2509066.7
2509066.7
2509066.7
2509066.6
2509066.6
2509066.6
2509066.6
2509066.6
2509066.7
2509066.7
2509066.7
2509066.7
2509066.7
2509066.7
2509102.9
2509102.3
2509101.4
2509100.2
2509099.3
2509098.3
2509097.3
2509096.3
2509095.6
2509094.9
2509094.4
2509094
2509093.7
2509093.5
2509093.4
2509093.4
2509093.3
2509093.3
2509093.3
2509093.3
2509093.3
2509093.3
2509093.3
2509093.3
2509093.3
2509093.3
2509093.3
2509093.3
2509093.3
2509093.3
2509127.3
2509126.8
2509126
2509124.9
2509124.1
2509123.4
2509122.7
2509122
2509121.5
2509121
2509120.6
2509120.4
2509120.2
2509120
2509120
2509119.9
2509119.9
2509119.9
2509119.9
2509119.9
2509119.9
2509119.9
2509119.9
2509119.9
2509119.9
2509119.9
2509119.9
2509119.9
2509119.9
2509119.9
2509152
2509151.6
2509150.8
2509149.9
2509149.3
2509148.8
2509148.3
2509147.8
2509147.4
2509147.1
2509146.8
2509146.6
2509146.4
2509146.3
2509146.3
2509146.2
2509146.2
2509146.2
2509146.2
2509146.2
2509146.2
2509146.2
2509146.2
2509146.2
2509146.2
2509146.2
2509146.2
2509146.2
2509146.2
2509146.2
2509177
2509176.6
2509176
2509175.2
2509174.7
2509174.3
2509174
2509173.6
2509173.3
2509173.1
2509172.9
2509172.7
2509172.6
2509172.5
2509172.5
2509172.5
2509172.5
2509172.5
2509172.4
2509172.4
2509172.4
2509172.4
2509172.4
2509172.4
2509172.4
2509172.4
2509172.4
2509172.4
2509172.4
2509172.4
2509202.2
2509201.9
2509201.4
2509200.7
2509200.3
2509200
2509199.8
2509199.5
2509199.3
2509199.2
2509199
2509198.9
2509198.8
2509198.7
2509198.7
2509198.7
2509198.7
2509198.7
2509198.7
2509198.7
2509198.7
2509198.7
2509198.7
2509198.7
2509198.7
2509198.7
2509198.7
2509198.7
2509198.7
2509198.7
2509227.7
2509227.4
2509227
2509226.4
2509226.1
2509225.9
2509225.7
2509225.5
2509225.4
2509225.3
2509225.1
2509225
2509225
2509225
2509224.9
2509224.9
2509224.9
2509224.9
2509224.9
2509224.9
2509224.9
2509224.9
2509224.9
2509224.9
2509224.9
2509224.9
2509224.9
2509224.9
2509224.9
2509224.9
2509253.3
2509253.2
2509252.8
2509252.3
2509252.1
2509251.9
2509251.7
2509251.6
2509251.6
2509251.5
2509251.4
2509251.3
2509251.3
2509251.2
2509251.2
2509251.2
2509251.2
2509251.2
2509251.2
2509251.2
2509251.2
2509251.2
2509251.2
2509251.2
2509251.2
2509251.2
2509251.2
2509251.2
2509251.2
2509251.2
2509279.2
2509279.1
2509278.7
2509278.4
2509278.2
2509278
2509277.9
2509277.9
2509277.8
2509277.8
2509277.7
2509277.6
2509277.6
2509277.6
2509277.6
2509277.6
2509277.6
2509277.6
2509277.6
2509277.6
2509277.6
2509277.6
2509277.6
2509277.6
2509277.6
2509277.6
2509277.6
2509277.6
2509277.6
2509277.6
2509305.2
2509305.1
2509304.9
2509304.6
2509304.4
2509304.3
2509304.2
2509304.2
2509304.2
2509304.2
2509304.1
2509304.1
2509304.1
2509304
2509304
2509304
2509304
2509304
2509304
2509304
2509304
2509304
2509304
2509304
2509304
2509304
2509304
2509304
2509304
2509304
2509331.4
2509331.4
2509331.2
2509330.9
2509330.8
2509330.7
2509330.6
2509330.6
2509330.6
2509330.6
2509330.6
2509330.6
2509330.6
2509330.6
2509330.6
2509330.6
2509330.6
2509330.6
2509330.6
2509330.6
2509330.6
2509330.6
2509330.6
2509330.6
2509330.6
2509330.6
2509330.6
2509330.6
2509330.6
2509330.6
2509357.8
2509357.8
2509357.6
2509357.4
2509357.3
2509357.2
2509357.2
2509357.2
2509357.2
2509357.2
2509357.2
2509357.2
2509357.2
2509357.2
2509357.2
2509357.2
2509357.2
2509357.2
2509357.2
2509357.2
2509357.2
2509357.2
2509357.2
2509357.2
2509357.2
2509357.2
2509357.2
2509357.2
2509357.2
2509357.2
2509384.3
2509384.3
2509384.2
2509384
2509383.9
2509383.8
2509383.8
2509383.9
2509383.9
2509383.9
2509383.9
2509383.9
2509383.9
2509383.9
2509383.9
2509383.9
2509383.9
2509383.9
2509383.9
2509383.9
2509383.9
2509383.9
2509383.9
2509383.9
2509383.9
2509383.9
2509383.9
2509383.9
2509383.9
2509383.9
2509411
2509411
2509410.9
2509410.7
2509410.6
2509410.6
2509410.6
2509410.6
2509410.7
2509410.7
2509410.7
2509410.7
2509410.7
2509410.7
2509410.7
2509410.7
2509410.7
2509410.7
2509410.7
2509410.7
2509410.7
2509410.7
2509410.7
2509410.7
2509410.7
2509410.7
2509410.7
2509410.7
2509410.7
2509410.7
2509437.8
2509437.8
2509437.7
2509437.6
2509437.5
2509437.5
2509437.5
2509437.6
2509437.6
2509437.6
2509437.6
2509437.6
2509437.6
2509437.6
2509437.6
2509437.6
2509437.6
2509437.6
2509437.7
2509437.7
2509437.7
2509437.7
2509437.7
2509437.7
2509437.7
2509437.7
2509437.7
2509437.7
2509437.7
2509437.7
2509464.8
2509464.8
2509464.7
2509464.6
2509464.5
2509464.5
2509464.5
2509464.6
2509464.6
2509464.6
2509464.6
2509464.6
2509464.7
2509464.7
2509464.7
2509464.7
2509464.7
2509464.7
2509464.7
2509464.7
2509464.7
2509464.7
2509464.7
2509464.7
2509464.7
2509464.7
2509464.7
2509464.7
2509464.7
2509464.7
2509491.9
2509491.9
2509491.8
2509491.7
2509491.7
2509491.7
2509491.7
2509491.7
2509491.8
2509491.8
2509491.8
2509491.8
2509491.8
2509491.8
2509491.8
2509491.9
2509491.9
2509491.9
2509491.9
2509491.9
2509491.9
2509491.9
2509491.9
2509491.9
2509491.9
2509491.9
2509491.9
2509491.9
2509491.9
2509491.9
2509519.1
2509519.1
2509519.1
2509519
2509518.9
2509518.9
2509518.9
2509519
2509519
2509519.1
2509519.1
2509519.1
2509519.1
2509519.1
2509519.1
2509519.1
2509519.1
2509519.2
2509519.2
2509519.2
2509519.2
2509519.2
2509519.2
2509519.2
2509519.2
2509519.2
2509519.2
2509519.2
2509519.2
2509519.2
2509546.5
2509546.5
2509546.4
2509546.4
2509546.3
2509546.4
2509546.4
2509546.4
2509546.5
2509546.5
2509546.5
2509546.5
2509546.5
2509546.5
2509546.6
2509546.6
2509546.6
2509546.6
2509546.6
2509546.6
2509546.6
2509546.6
2509546.6
2509546.6
2509546.6
2509546.6
2509546.6
2509546.6
2509546.6
2509546.6
2509574
2509574
2509574
2509573.9
2509573.9
2509573.9
2509573.9
2509574
2509574
2509574
2509574
2509574.1
2509574.1
2509574.1
2509574.1
2509574.1
2509574.1
2509574.1
2509574.1
2509574.1
2509574.1
2509574.1
2509574.1
2509574.1
2509574.1
2509574.1
2509574.1
2509574.1
2509574.1
2509574.1
2509601.6
2509601.6
2509601.6
2509601.6
2509601.5
2509601.6
2509601.6
2509601.6
2509601.7
2509601.7
2509601.7
2509601.7
2509601.7
2509601.8
2509601.8
2509601.8
2509601.8
2509601.8
2509601.8
2509601.8
2509601.8
2509601.8
2509601.8
2509601.8
2509601.8
2509601.8
2509601.8
2509601.8
2509601.8
2509601.8
2509629.4
2509629.4
2509629.4
2509629.4
2509629.3
2509629.4
2509629.4
2509629.5
2509629.5
2509629.5
2509629.5
2509629.5
2509629.6
2509629.6
2509629.6
2509629.6
2509629.6
2509629.6
2509629.6
2509629.6
2509629.6
2509629.6
2509629.6
2509629.6
2509629.6
2509629.6
2509629.6
2509629.6
2509629.6
2509629.6
2509657.3
2509657.4
2509657.3
2509657.3
2509657.3
2509657.3
2509657.3
2509657.4
2509657.4
2509657.5
2509657.5
2509657.5
2509657.5
2509657.5
2509657.5
2509657.5
2509657.5
2509657.5
2509657.5
2509657.5
2509657.5
2509657.5
2509657.5
2509657.5
2509657.5
2509657.5
2509657.5
2509657.5
2509657.5
2509657.5
2509685.4
2509685.4
2509685.4
2509685.4
2509685.4
2509685.4
2509685.4
2509685.5
2509685.5
2509685.5
2509685.5
2509685.6
2509685.6
2509685.6
2509685.6
2509685.6
2509685.6
2509685.6
2509685.6
2509685.6
2509685.6
2509685.6
2509685.6
2509685.6
2509685.6
2509685.6
2509685.6
2509685.6
2509685.6
2509685.6
2509713.6
2509713.6
2509713.6
2509713.6
2509713.6
2509713.6
2509713.6
2509713.7
2509713.7
2509713.7
2509713.7
2509713.8
2509713.8
2509713.8
2509713.8
2509713.8
2509713.8
2509713.8
2509713.8
2509713.8
2509713.8
2509713.8
2509713.8
2509713.8
2509713.8
2509713.8
2509713.8
2509713.8
2509713.8
2509713.8
2509741.9
2509742
2509741.9
2509741.9
2509741.9
2509741.9
2509742
2509742
2509742.1
2509742.1
2509742.1
2509742.1
2509742.1
2509742.2
2509742.2
2509742.2
2509742.2
2509742.2
2509742.2
2509742.2
2509742.2
2509742.2
2509742.2
2509742.2
2509742.2
2509742.2
2509742.2
2509742.2
2509742.2
2509742.2
2509770.4
2509770.5
2509770.4
2509770.4
2509770.4
2509770.4
2509770.5
2509770.5
2509770.6
2509770.6
2509770.6
2509770.6
2509770.6
2509770.6
2509770.6
2509770.7
2509770.7
2509770.7
2509770.7
2509770.7
2509770.7
2509770.7
2509770.7
2509770.7
2509770.7
2509770.7
2509770.7
2509770.7
2509770.7
2509770.7
2509799.1
2509799.1
2509799.1
2509799
2509799
2509799.1
2509799.1
2509799.2
2509799.2
2509799.2
2509799.2
2509799.3
2509799.3
2509799.3
2509799.3
2509799.3
2509799.3
2509799.3
2509799.3
2509799.3
2509799.3
2509799.3
2509799.3
2509799.3
2509799.3
2509799.3
2509799.3
2509799.3
2509799.3
2509799.3
2509827.8
2509827.9
2509827.8
2509827.8
2509827.8
2509827.9
2509827.9
2509828
2509828
2509828
2509828
2509828
2509828.1
2509828.1
2509828.1
2509828.1
2509828.1
2509828.1
2509828.1
2509828.1
2509828.1
2509828.1
2509828.1
2509828.1
2509828.1
2509828.1
2509828.1
2509828.1
2509828.1
2509828.1
2509856.8
2509856.8
2509856.8
2509856.7
2509856.7
2509856.8
2509856.8
2509856.9
2509856.9
2509856.9
2509857
2509857
2509857
2509857
2509857
2509857
2509857
2509857
2509857
2509857
2509857
2509857
2509857
2509857
2509857
2509857
2509857
2509857
2509857
2509857
2509885.8
2509885.9
2509885.8
2509885.8
2509885.8
2509885.9
2509885.9
2509886
2509886
2509886
2509886
2509886.1
2509886.1
2509886.1
2509886.1
2509886.1
2509886.1
2509886.1
2509886.1
2509886.1
2509886.1
2509886.1
2509886.1
2509886.1
2509886.1
2509886.1
2509886.1
2509886.1
2509886.1
2509886.1
2509915.1
2509915.1
2509915.1
2509915
2509915.1
2509915.1
2509915.1
2509915.2
2509915.2
2509915.3
2509915.3
2509915.3
2509915.3
2509915.3
2509915.3
2509915.3
2509915.3
2509915.3
2509915.3
2509915.3
2509915.3
2509915.3
2509915.3
2509915.3
2509915.3
2509915.3
2509915.3
2509915.3
2509915.3
2509915.3
2509944.4
2509944.5
2509944.4
2509944.4
2509944.4
2509944.5
2509944.5
2509944.6
2509944.6
2509944.6
2509944.7
2509944.7
2509944.7
2509944.7
2509944.7
2509944.7
2509944.7
2509944.7
2509944.7
2509944.7
2509944.7
2509944.7
2509944.7
2509944.7
2509944.7
2509944.7
2509944.7
2509944.7
2509944.7
2509944.7
2509973.9
2509974
2509974
2509973.9
2509974
2509974
2509974
2509974.1
2509974.1
2509974.2
2509974.2
2509974.2
2509974.2
2509974.2
2509974.3
2509974.3
2509974.3
2509974.3
2509974.3
2509974.3
2509974.3
2509974.3
2509974.3
2509974.3
2509974.3
2509974.3
2509974.3
2509974.3
2509974.3
2509974.3
2510003.6
2510003.7
2510003.6
2510003.6
2510003.6
2510003.7
2510003.7
2510003.8
2510003.8
2510003.8
2510003.9
2510003.9
2510003.9
2510003.9
2510003.9
2510003.9
2510003.9
2510004
2510004
2510004
2510004
2510004
2510004
2510004
2510004
2510004
2510004
2510004
2510004
2510004
2510033.4
2510033.5
2510033.5
2510033.4
2510033.5
2510033.5
2510033.6
2510033.6
2510033.6
2510033.7
2510033.7
2510033.7
2510033.7
2510033.8
2510033.8
2510033.8
2510033.8
2510033.8
2510033.8
2510033.8
2510033.8
2510033.8
2510033.8
2510033.8
2510033.8
2510033.8
2510033.8
2510033.8
2510033.8
2510033.8
2510063.4
2510063.4
2510063.4
2510063.4
2510063.4
2510063.5
2510063.5
2510063.6
2510063.6
2510063.7
2510063.7
2510063.7
2510063.7
2510063.7
2510063.8
2510063.8
2510063.8
2510063.8
2510063.8
2510063.8
2510063.8
2510063.8
2510063.8
2510063.8
2510063.8
2510063.8
2510063.8
2510063.8
2510063.8
2510063.8
2510093.5
2510093.6
2510093.6
2510093.5
2510093.6
2510093.6
2510093.7
2510093.7
2510093.8
2510093.8
2510093.8
2510093.8
2510093.9
2510093.9
2510093.9
2510093.9
2510093.9
2510093.9
2510093.9
2510093.9
2510093.9
2510093.9
2510093.9
2510093.9
2510093.9
2510093.9
2510093.9
2510093.9
2510093.9
2510093.9
2510123.8
2510123.9
2510123.8
2510123.8
2510123.9
2510123.9
2510123.9
2510124
2510124
2510124.1
2510124.1
2510124.1
2510124.2
2510124.2
2510124.2
2510124.2
2510124.2
2510124.2
2510124.2
2510124.2
2510124.2
2510124.2
2510124.2
2510124.2
2510124.2
2510124.2
2510124.2
2510124.2
2510124.2
2510124.2
2510154.2
2510154.3
2510154.3
2510154.2
2510154.3
2510154.3
2510154.4
2510154.5
2510154.5
2510154.5
2510154.5
2510154.6
2510154.6
2510154.6
2510154.6
2510154.6
2510154.6
2510154.6
2510154.6
2510154.6
2510154.6
2510154.6
2510154.6
2510154.6
2510154.6
2510154.6
2510154.6
2510154.6
2510154.6
2510154.6
2510184.8
2510184.9
2510184.8
2510184.8
2510184.9
2510184.9
2510185
2510185
2510185.1
2510185.1
2510185.1
2510185.2
2510185.2
2510185.2
2510185.2
2510185.2
2510185.2
2510185.2
2510185.2
2510185.2
2510185.2
2510185.2
2510185.2
2510185.2
2510185.2
2510185.2
2510185.2
2510185.2
2510185.2
2510185.2
2510215.6
2510215.6
2510215.6
2510215.6
2510215.6
2510215.7
2510215.7
2510215.8
2510215.8
2510215.9
2510215.9
2510215.9
2510215.9
2510216
2510216
2510216
2510216
2510216
2510216
2510216
2510216
2510216
2510216
2510216
2510216
2510216
2510216
2510216
2510216
2510216
2510246.5
2510246.5
2510246.5
2510246.5
2510246.5
2510246.6
2510246.6
2510246.7
2510246.7
2510246.8
2510246.8
2510246.8
2510246.8
2510246.9
2510246.9
2510246.9
2510246.9
2510246.9
2510246.9
2510246.9
2510246.9
2510246.9
2510246.9
2510246.9
2510246.9
2510246.9
2510246.9
2510246.9
2510246.9
2510246.9
2510277.5
2510277.6
2510277.6
2510277.5
2510277.6
2510277.6
2510277.7
2510277.8
2510277.8
2510277.8
2510277.9
2510277.9
2510277.9
2510277.9
2510277.9
2510277.9
2510277.9
2510277.9
2510277.9
2510277.9
2510277.9
2510277.9
2510277.9
2510277.9
2510277.9
2510277.9
2510277.9
2510277.9
2510277.9
2510277.9
2510308.7
2510308.8
2510308.8
2510308.7
2510308.8
2510308.9
2510308.9
2510309
2510309
2510309
2510309.1
2510309.1
2510309.1
2510309.1
2510309.1
2510309.2
2510309.2
2510309.2
2510309.2
2510309.2
2510309.2
2510309.2
2510309.2
2510309.2
2510309.2
2510309.2
2510309.2
2510309.2
2510309.2
2510309.2
2510340.1
2510340.2
2510340.2
2510340.1
2510340.2
2510340.2
2510340.3
2510340.4
2510340.4
2510340.4
2510340.5
2510340.5
2510340.5
2510340.5
2510340.5
2510340.5
2510340.5
2510340.6
2510340.6
2510340.6
2510340.6
2510340.6
2510340.6
2510340.6
2510340.6
2510340.6
2510340.6
2510340.6
2510340.6
2510340.6
2510371.7
2510371.7
2510371.7
2510371.7
2510371.7
2510371.8
2510371.8
2510371.9
2510371.9
2510372
2510372
2510372
2510372.1
2510372.1
2510372.1
2510372.1
2510372.1
2510372.1
2510372.1
2510372.1
2510372.1
2510372.1
2510372.1
2510372.1
2510372.1
2510372.1
2510372.1
2510372.1
2510372.1
2510372.1
2510403.4
2510403.4
2510403.4
2510403.4
2510403.4
2510403.5
2510403.5
2510403.6
2510403.6
2510403.7
2510403.7
2510403.7
2510403.8
2510403.8
2510403.8
2510403.8
2510403.8
2510403.8
2510403.8
2510403.8
2510403.8
2510403.8
2510403.8
2510403.8
2510403.8
2510403.8
2510403.8
2510403.8
2510403.8
2510403.8
2510435.2
2510435.3
2510435.3
2510435.2
2510435.3
2510435.3
2510435.4
2510435.5
2510435.5
2510435.5
2510435.6
2510435.6
2510435.6
2510435.6
2510435.7
2510435.7
2510435.7
2510435.7
2510435.7
2510435.7
2510435.7
2510435.7
2510435.7
2510435.7
2510435.7
2510435.7
2510435.7
2510435.7
2510435.7
2510435.7
2510467.3
2510467.3
2510467.3
2510467.3
2510467.3
2510467.4
2510467.4
2510467.5
2510467.5
2510467.6
2510467.6
2510467.6
2510467.7
2510467.7
2510467.7
2510467.7
2510467.7
2510467.7
2510467.7
2510467.7
2510467.7
2510467.7
2510467.7
2510467.7
2510467.7
2510467.7
2510467.7
2510467.7
2510467.7
2510467.7
2510499.5
2510499.5
2510499.5
2510499.5
2510499.5
2510499.6
2510499.6
2510499.7
2510499.7
2510499.8
2510499.8
2510499.8
2510499.9
2510499.9
2510499.9
2510499.9
2510499.9
2510499.9
2510499.9
2510499.9
2510499.9
2510499.9
2510499.9
2510499.9
2510499.9
2510499.9
2510499.9
2510499.9
2510499.9
2510499.9
2510531.8
2510531.9
2510531.8
2510531.8
2510531.9
2510531.9
2510532
2510532.1
2510532.1
2510532.1
2510532.2
2510532.2
2510532.2
2510532.3
2510532.3
2510532.3
2510532.3
2510532.3
2510532.3
2510532.3
2510532.3
2510532.3
2510532.3
2510532.3
2510532.3
2510532.3
2510532.3
2510532.3
2510532.3
2510532.3
2510564.3
2510564.4
2510564.4
2510564.3
2510564.4
2510564.5
2510564.5
2510564.6
2510564.6
2510564.7
2510564.7
2510564.7
2510564.8
2510564.8
2510564.8
2510564.8
2510564.8
2510564.8
2510564.8
2510564.8
2510564.8
2510564.8
2510564.8
2510564.8
2510564.8
2510564.8
2510564.8
2510564.8
2510564.8
2510564.8
2510597
2510597.1
2510597.1
2510597
2510597.1
2510597.2
2510597.2
2510597.3
2510597.3
2510597.4
2510597.4
2510597.4
2510597.5
2510597.5
2510597.5
2510597.5
2510597.5
2510597.5
2510597.5
2510597.5
2510597.5
2510597.5
2510597.5
2510597.5
2510597.5
2510597.5
2510597.5
2510597.5
2510597.5
2510597.5
2510629.9
2510630
2510629.9
2510629.9
2510630
2510630
2510630.1
2510630.2
2510630.2
2510630.2
2510630.3
2510630.3
2510630.3
2510630.3
2510630.4
2510630.4
2510630.4
2510630.4
2510630.4
2510630.4
2510630.4
2510630.4
2510630.4
2510630.4
2510630.4
2510630.4
2510630.4
2510630.4
2510630.4
2510630.4
2510662.9
2510663
2510663
2510663
2510663
2510663.1
2510663.1
2510663.2
2510663.2
2510663.3
2510663.3
2510663.3
2510663.4
2510663.4
2510663.4
2510663.4
2510663.4
2510663.4
2510663.4
2510663.4
2510663.4
2510663.4
2510663.4
2510663.4
2510663.4
2510663.4
2510663.4
2510663.4
2510663.4
2510663.4
2510696.1
2510696.2
2510696.2
2510696.2
2510696.2
2510696.3
2510696.3
2510696.4
2510696.4
2510696.5
2510696.5
2510696.5
2510696.6
2510696.6
2510696.6
2510696.6
2510696.6
2510696.6
2510696.6
2510696.6
2510696.6
2510696.6
2510696.6
2510696.6
2510696.6
2510696.6
2510696.6
2510696.6
2510696.6
2510696.6
2510729.5
2510729.6
2510729.5
2510729.5
2510729.6
2510729.6
2510729.7
2510729.8
2510729.8
2510729.9
2510729.9
2510729.9
2510729.9
2510730
2510730
2510730
2510730
2510730
2510730
2510730
2510730
2510730
2510730
2510730
2510730
2510730
2510730
2510730
2510730
2510730
2510763
2510763.1
2510763.1
2510763.1
2510763.1
2510763.2
2510763.2
2510763.3
2510763.4
2510763.4
2510763.4
2510763.5
2510763.5
2510763.5
2510763.5
2510763.5
2510763.5
2510763.5
2510763.5
2510763.5
2510763.5
2510763.5
2510763.5
2510763.5
2510763.5
2510763.5
2510763.5
2510763.5
2510763.5
2510763.5
2510796.7
2510796.8
2510796.8
2510796.8
2510796.9
2510796.9
2510796.9
2510797
2510797.1
2510797.1
2510797.1
2510797.2
2510797.2
2510797.2
2510797.2
2510797.2
2510797.2
2510797.2
2510797.2
2510797.2
2510797.2
2510797.2
2510797.2
2510797.2
2510797.2
2510797.2
2510797.2
2510797.2
2510797.2
2510797.2
2510830.6
2510830.7
2510830.7
2510830.7
2510830.7
2510830.8
2510830.8
2510830.9
2510830.9
2510831
2510831
2510831.1
2510831.1
2510831.1
2510831.1
2510831.1
2510831.1
2510831.1
2510831.1
2510831.1
2510831.1
2510831.1
2510831.1
2510831.1
2510831.1
2510831.1
2510831.1
2510831.1
2510831.1
2510831.1
2510864.7
2510864.8
2510864.7
2510864.7
2510864.8
2510864.8
2510864.9
2510865
2510865
2510865
2510865.1
2510865.1
2510865.1
2510865.1
2510865.2
2510865.2
2510865.2
2510865.2
2510865.2
2510865.2
2510865.2
2510865.2
2510865.2
2510865.2
2510865.2
2510865.2
2510865.2
2510865.2
2510865.2
2510865.2
2510898.9
2510899
2510898.9
2510898.9
2510899
2510899.1
2510899.1
2510899.2
2510899.2
2510899.3
2510899.3
2510899.3
2510899.4
2510899.4
2510899.4
2510899.4
2510899.4
2510899.4
2510899.4
2510899.4
2510899.4
2510899.4
2510899.4
2510899.4
2510899.4
2510899.4
2510899.4
2510899.4
2510899.4
2510899.4
2510933.3
2510933.4
2510933.3
2510933.3
2510933.4
2510933.4
2510933.5
2510933.6
2510933.6
2510933.7
2510933.7
2510933.7
2510933.8
2510933.8
2510933.8
2510933.8
2510933.8
2510933.8
2510933.8
2510933.8
2510933.8
2510933.8
2510933.8
2510933.8
2510933.8
2510933.8
2510933.8
2510933.8
2510933.8
2510933.8
2510967.9
2510967.9
2510967.9
2510967.9
2510968
2510968
2510968.1
2510968.1
2510968.2
2510968.2
2510968.3
2510968.3
2510968.3
2510968.3
2510968.3
2510968.4
2510968.4
2510968.4
2510968.4
2510968.4
2510968.4
2510968.4
2510968.4
2510968.4
2510968.4
2510968.4
2510968.4
2510968.4
2510968.4
2510968.4
2511002.6
2511002.7
2511002.6
2511002.6
2511002.7
2511002.8
2511002.8
2511002.9
2511002.9
2511003
2511003
2511003
2511003.1
2511003.1
2511003.1
2511003.1
2511003.1
2511003.1
2511003.1
2511003.1
2511003.1
2511003.1
2511003.1
2511003.1
2511003.1
2511003.1
2511003.1
2511003.1
2511003.1
2511003.1
2511037.5
2511037.6
2511037.6
2511037.6
2511037.6
2511037.7
2511037.7
2511037.8
2511037.8
2511037.9
2511037.9
2511038
2511038
2511038
2511038
2511038
2511038
2511038
2511038
2511038
2511038
2511038
2511038
2511038
2511038
2511038
2511038
2511038
2511038
2511038
2511072.6
2511072.7
2511072.6
2511072.6
2511072.7
2511072.8
2511072.8
2511072.9
2511072.9
2511073
2511073
2511073
2511073.1
2511073.1
2511073.1
2511073.1
2511073.1
2511073.1
2511073.1
2511073.1
2511073.1
2511073.1
2511073.1
2511073.1
2511073.1
2511073.1
2511073.1
2511073.1
2511073.1
2511073.1
2511107.9
2511107.9
2511107.9
2511107.9
2511108
2511108
2511108.1
2511108.1
2511108.2
2511108.2
2511108.3
2511108.3
2511108.3
2511108.3
2511108.3
2511108.4
2511108.4
2511108.4
2511108.4
2511108.4
2511108.4
2511108.4
2511108.4
2511108.4
2511108.4
2511108.4
2511108.4
2511108.4
2511108.4
2511108.4
2511143.3
2511143.4
2511143.3
2511143.3
2511143.4
2511143.4
2511143.5
2511143.6
2511143.6
2511143.7
2511143.7
2511143.7
2511143.8
2511143.8
2511143.8
2511143.8
2511143.8
2511143.8
2511143.8
2511143.8
2511143.8
2511143.8
2511143.8
2511143.8
2511143.8
2511143.8
2511143.8
2511143.8
2511143.8
2511143.8
2511178.9
2511179
2511178.9
2511178.9
2511179
2511179
2511179.1
2511179.2
2511179.2
2511179.3
2511179.3
2511179.3
2511179.4
2511179.4
2511179.4
2511179.4
2511179.4
2511179.4
2511179.4
2511179.4
2511179.4
2511179.4
2511179.4
2511179.4
2511179.4
2511179.4
2511179.4
2511179.4
2511179.4
2511179.4
2511214.7
2511214.8
2511214.7
2511214.7
2511214.8
2511214.8
2511214.9
2511215
2511215
2511215.1
2511215.1
2511215.1
2511215.2
2511215.2
2511215.2
2511215.2
2511215.2
2511215.2
2511215.2
2511215.2
2511215.2
2511215.2
2511215.2
2511215.2
2511215.2
2511215.2
2511215.2
2511215.2
2511215.2
2511215.2
2511250.6
2511250.7
2511250.7
2511250.7
2511250.7
2511250.8
2511250.8
2511250.9
2511251
2511251
2511251
2511251.1
2511251.1
2511251.1
2511251.1
2511251.1
2511251.1
2511251.1
2511251.1
2511251.2
2511251.2
2511251.2
2511251.2
2511251.2
2511251.2
2511251.2
2511251.2
2511251.2
2511251.2
2511251.2
2511286.8
2511286.9
2511286.8
2511286.8
2511286.9
2511286.9
2511287
2511287.1
2511287.1
2511287.2
2511287.2
2511287.2
2511287.2
2511287.3
2511287.3
2511287.3
2511287.3
2511287.3
2511287.3
2511287.3
2511287.3
2511287.3
2511287.3
2511287.3
2511287.3
2511287.3
2511287.3
2511287.3
2511287.3
2511287.3
2511323.1
2511323.2
2511323.1
2511323.1
2511323.2
2511323.2
2511323.3
2511323.4
2511323.4
2511323.5
2511323.5
2511323.5
2511323.6
2511323.6
2511323.6
2511323.6
2511323.6
2511323.6
2511323.6
2511323.6
2511323.6
2511323.6
2511323.6
2511323.6
2511323.6
2511323.6
2511323.6
2511323.6
2511323.6
2511323.6
2511359.6
2511359.7
2511359.6
2511359.6
2511359.7
2511359.7
2511359.8
2511359.9
2511359.9
2511359.9
2511360
2511360
2511360
2511360.1
2511360.1
2511360.1
2511360.1
2511360.1
2511360.1
2511360.1
2511360.1
2511360.1
2511360.1
2511360.1
2511360.1
2511360.1
2511360.1
2511360.1
2511360.1
2511360.1
2511396.2
2511396.3
2511396.2
2511396.3
2511396.3
2511396.4
2511396.4
2511396.5
2511396.6
2511396.6
2511396.7
2511396.7
2511396.7
2511396.7
2511396.7
2511396.7
2511396.8
2511396.8
2511396.8
2511396.8
2511396.8
2511396.8
2511396.8
2511396.8
2511396.8
2511396.8
2511396.8
2511396.8
2511396.8
2511396.8
2511433.1
2511433.2
2511433.1
2511433.1
2511433.2
2511433.2
2511433.3
2511433.4
2511433.4
2511433.5
2511433.5
2511433.5
2511433.6
2511433.6
2511433.6
2511433.6
2511433.6
2511433.6
2511433.6
2511433.6
2511433.6
2511433.6
2511433.6
2511433.6
2511433.6
2511433.6
2511433.6
2511433.6
2511433.6
2511433.6
2511470.1
2511470.2
2511470.1
2511470.1
2511470.2
2511470.2
2511470.3
2511470.4
2511470.4
2511470.5
2511470.5
2511470.6
2511470.6
2511470.6
2511470.6
2511470.6
2511470.6
2511470.6
2511470.6
2511470.6
2511470.6
2511470.6
2511470.6
2511470.6
2511470.6
2511470.6
2511470.6
2511470.6
2511470.6
2511470.6
2511507.3
2511507.4
2511507.3
2511507.3
2511507.4
2511507.4
2511507.5
2511507.6
2511507.6
2511507.7
2511507.7
2511507.8
2511507.8
2511507.8
2511507.8
2511507.8
2511507.8
2511507.8
2511507.8
2511507.8
2511507.8
2511507.8
2511507.8
2511507.8
2511507.8
2511507.8
2511507.8
2511507.8
2511507.8
2511507.8
2511544.7
2511544.8
2511544.7
2511544.7
2511544.8
2511544.8
2511544.9
2511545
2511545
2511545.1
2511545.1
2511545.1
2511545.2
2511545.2
2511545.2
2511545.2
2511545.2
2511545.2
2511545.2
2511545.2
2511545.2
2511545.2
2511545.2
2511545.2
2511545.2
2511545.2
2511545.2
2511545.2
2511545.2
2511545.2
2511582.2
2511582.3
2511582.2
2511582.3
2511582.3
2511582.4
2511582.4
2511582.5
2511582.6
2511582.6
2511582.6
2511582.7
2511582.7
2511582.7
2511582.7
2511582.7
2511582.8
2511582.8
2511582.8
2511582.8
2511582.8
2511582.8
2511582.8
2511582.8
2511582.8
2511582.8
2511582.8
2511582.8
2511582.8
2511582.8
2511620
2511620.1
2511619.9
2511620
2511620.1
2511620.1
2511620.1
2511620.2
2511620.3
2511620.3
2511620.4
2511620.4
2511620.4
2511620.5
2511620.5
2511620.5
2511620.5
2511620.5
2511620.5
2511620.5
2511620.5
2511620.5
2511620.5
2511620.5
2511620.5
2511620.5
2511620.5
2511620.5
2511620.5
2511620.5
2511657.9
2511658
2511657.8
2511657.9
2511658
2511658
2511658.1
2511658.1
2511658.2
2511658.2
2511658.3
2511658.3
2511658.3
2511658.4
2511658.4
2511658.4
2511658.4
2511658.4
2511658.4
2511658.4
2511658.4
2511658.4
2511658.4
2511658.4
2511658.4
2511658.4
2511658.4
2511658.4
2511658.4
2511658.4
2511696
2511696.1
2511695.9
2511696
2511696
2511696.1
2511696.1
2511696.2
2511696.3
2511696.3
2511696.4
2511696.4
2511696.4
2511696.4
2511696.4
2511696.5
2511696.5
2511696.5
2511696.5
2511696.5
2511696.5
2511696.5
2511696.5
2511696.5
2511696.5
2511696.5
2511696.5
2511696.5
2511696.5
2511696.5
2511734.2
2511734.3
2511734.2
2511734.2
2511734.3
2511734.3
2511734.4
2511734.5
2511734.5
2511734.6
2511734.6
2511734.7
2511734.7
2511734.7
2511734.7
2511734.7
2511734.7
2511734.7
2511734.7
2511734.7
2511734.7
2511734.7
2511734.7
2511734.7
2511734.7
2511734.7
2511734.7
2511734.7
2511734.7
2511734.7
2511772.6
2511772.8
2511772.6
2511772.6
2511772.7
2511772.8
2511772.8
2511772.9
2511773
2511773
2511773.1
2511773.1
2511773.1
2511773.1
2511773.1
2511773.1
2511773.2
2511773.2
2511773.2
2511773.2
2511773.2
2511773.2
2511773.2
2511773.2
2511773.2
2511773.2
2511773.2
2511773.2
2511773.2
2511773.2
2511811.3
2511811.4
2511811.2
2511811.3
2511811.3
2511811.4
2511811.4
2511811.5
2511811.6
2511811.6
2511811.7
2511811.7
2511811.7
2511811.7
2511811.7
2511811.8
2511811.8
2511811.8
2511811.8
2511811.8
2511811.8
2511811.8
2511811.8
2511811.8
2511811.8
2511811.8
2511811.8
2511811.8
2511811.8
2511811.8
2511850
2511850.1
2511850
2511850
2511850.1
2511850.2
2511850.2
2511850.3
2511850.3
2511850.4
2511850.4
2511850.5
2511850.5
2511850.5
2511850.5
2511850.5
2511850.5
2511850.5
2511850.5
2511850.5
2511850.5
2511850.5
2511850.5
2511850.5
2511850.5
2511850.5
2511850.5
2511850.5
2511850.5
2511850.5
2511889
2511889.1
2511888.9
2511889
2511889.1
2511889.1
2511889.2
2511889.3
2511889.3
2511889.4
2511889.4
2511889.4
2511889.5
2511889.5
2511889.5
2511889.5
2511889.5
2511889.5
2511889.5
2511889.5
2511889.5
2511889.5
2511889.5
2511889.5
2511889.5
2511889.5
2511889.5
2511889.5
2511889.5
2511889.5
2511928.1
2511928.2
2511928.1
2511928.1
2511928.2
2511928.3
2511928.3
2511928.4
2511928.4
2511928.5
2511928.5
2511928.6
2511928.6
2511928.6
2511928.6
2511928.6
2511928.6
2511928.6
2511928.6
2511928.6
2511928.6
2511928.6
2511928.7
2511928.7
2511928.7
2511928.7
2511928.7
2511928.7
2511928.7
2511928.7
2511967.4
2511967.6
2511967.4
2511967.4
2511967.5
2511967.6
2511967.6
2511967.7
2511967.8
2511967.8
2511967.9
2511967.9
2511967.9
2511967.9
2511967.9
2511968
2511968
2511968
2511968
2511968
2511968
2511968
2511968
2511968
2511968
2511968
2511968
2511968
2511968
2511968
2512006.9
2512007
2512006.9
2512006.9
2512007
2512007.1
2512007.1
2512007.2
2512007.2
2512007.3
2512007.3
2512007.4
2512007.4
2512007.4
2512007.4
2512007.4
2512007.4
2512007.4
2512007.4
2512007.4
2512007.4
2512007.4
2512007.4
2512007.4
2512007.4
2512007.4
2512007.4
2512007.4
2512007.4
2512007.4
2512046.6
2512046.7
2512046.5
2512046.6
2512046.7
2512046.7
2512046.8
2512046.9
2512046.9
2512047
2512047
2512047.1
2512047.1
2512047.1
2512047.1
2512047.1
2512047.1
2512047.1
2512047.1
2512047.1
2512047.1
2512047.1
2512047.1
2512047.1
2512047.1
2512047.1
2512047.1
2512047.1
2512047.1
2512047.1
2512086.4
2512086.6
2512086.3
2512086.4
2512086.5
2512086.6
2512086.6
2512086.7
2512086.8
2512086.8
2512086.9
2512086.9
2512086.9
2512086.9
2512086.9
2512087
2512087
2512087
2512087
2512087
2512087
2512087
2512087
2512087
2512087
2512087
2512087
2512087
2512087
2512087
2512126.5
2512126.6
2512126.4
2512126.4
2512126.5
2512126.6
2512126.6
2512126.7
2512126.8
2512126.8
2512126.9
2512126.9
2512126.9
2512127
2512127
2512127
2512127
2512127
2512127
2512127
2512127
2512127
2512127
2512127
2512127
2512127
2512127
2512127
2512127
2512127