/*--------------------------------*- C++ -*----------------------------------*\
| =========                 |                                                 |
| \\      /  F ield         | OpenFOAM: The Open Source CFD Toolbox           |
|  \\    /   O peration     | Version:  v2012                                 |
|   \\  /    A nd           | Website:  www.openfoam.com                      |
|    \\/     M anipulation  |                                                 |
\*---------------------------------------------------------------------------*/
FoamFile
{
    version     2.0;
    format      ascii;
    class       surfaceScalarField;
    location    "50";
    object      phi;
}
// * * * * * * * * * * * * * * * * * * * * * * * * * * * * * * * * * * * * * //

dimensions      [1 0 -1 0 0 0 0];
oriented        oriented;


internalField   nonuniform List<scalar> 
47170
(
6.259304e-09
-2.9570309e-05
1.3754239e-08
-2.5068649e-05
2.116616e-08
-2.1602993e-05
2.7529004e-08
-1.8063207e-05
3.3921465e-08
-1.5054406e-05
4.1835162e-08
-1.2539852e-05
5.2683039e-08
-1.0435274e-05
6.6821313e-08
-8.6123941e-06
7.7078407e-08
-7.0499526e-06
8.2217637e-08
-5.7605048e-06
7.9479479e-08
-4.6303906e-06
6.7452543e-08
-3.5912422e-06
5.0185065e-08
-2.6866026e-06
3.3305723e-08
-1.9547589e-06
1.9898592e-08
-1.4029871e-06
1.0399299e-08
-1.004592e-06
4.1167651e-09
-7.2120434e-07
2.1384116e-10
-5.1977954e-07
-1.9790605e-09
-3.7547114e-07
-2.9378682e-09
-2.7046172e-07
-3.1071542e-09
-1.9364137e-07
-2.8323318e-09
-1.3613699e-07
-2.3358229e-09
-9.3286125e-08
-1.7603083e-09
-6.2135743e-08
-1.2088722e-09
-4.032045e-08
-7.4756035e-10
-2.5329189e-08
-4.0336574e-10
-1.5094346e-08
-1.7400833e-10
-8.2382337e-09
-4.4143566e-11
-3.7704036e-09
-9.799504e-10
5.8994338e-09
-2.9576208e-05
1.2390771e-08
-2.507514e-05
1.8384195e-08
-2.1608987e-05
2.2831046e-08
-1.8067654e-05
2.6804871e-08
-1.505838e-05
3.0415395e-08
-1.2543463e-05
3.3782332e-08
-1.0438643e-05
3.7144842e-08
-8.6157569e-06
3.8583842e-08
-7.051394e-06
3.8120016e-08
-5.7600409e-06
3.4493061e-08
-4.626766e-06
2.8275476e-08
-3.5850242e-06
2.09312e-08
-2.6792603e-06
1.3691044e-08
-1.9475181e-06
7.6458844e-09
-1.3969434e-06
3.1980632e-09
-1.0001433e-06
1.8337524e-10
-7.1819068e-07
-1.7280261e-09
-5.1786736e-07
-2.8404478e-09
-3.743594e-07
-3.3407168e-09
-2.6996068e-07
-3.3447984e-09
-1.9363771e-07
-2.9921848e-09
-1.364891e-07
-2.4255682e-09
-9.3853014e-08
-1.7831991e-09
-6.2777923e-08
-1.1840985e-09
-4.0919482e-08
-6.9980369e-10
-2.5813561e-08
-3.535443e-10
-1.5440018e-08
-1.3781275e-10
-8.4535318e-09
-2.9662273e-11
-3.8782548e-09
-1.0096127e-09
5.6243921e-09
-2.9581832e-05
1.0811948e-08
-2.5080327e-05
1.5271341e-08
-2.1613447e-05
1.8278024e-08
-1.8070661e-05
2.1010706e-08
-1.5061114e-05
2.3467528e-08
-1.254592e-05
2.5745514e-08
-1.0440922e-05
2.7132194e-08
-8.6171433e-06
2.8169826e-08
-7.0524328e-06
2.8082094e-08
-5.7599525e-06
2.5702707e-08
-4.6243877e-06
2.1962023e-08
-3.5812824e-06
1.7910811e-08
-2.67521e-06
1.3991198e-08
-1.9435972e-06
1.0636398e-08
-1.3935893e-06
8.024257e-09
-9.975299e-07
6.0694645e-09
-7.1623627e-07
4.6365709e-09
-5.1643315e-07
3.5857011e-09
-3.7330855e-07
2.8034232e-09
-2.6917713e-07
2.1852553e-09
-1.9301925e-07
1.665487e-09
-1.3596817e-07
1.2139275e-09
-9.3401056e-08
8.3802708e-10
-6.2401257e-08
5.3370367e-10
-4.0614817e-08
3.0684853e-10
-2.5586252e-08
1.522454e-10
-1.5285213e-08
5.8785818e-11
-8.3598406e-09
1.269979e-11
-3.8320089e-09
-9.9691286e-10
4.8395047e-09
-2.9586671e-05
8.9925773e-09
-2.508448e-05
1.2209978e-08
-2.1616665e-05
1.3976387e-08
-1.8072428e-05
1.5521952e-08
-1.506266e-05
1.6840579e-08
-1.2547239e-05
1.7965452e-08
-1.0442047e-05
1.8522061e-08
-8.6176995e-06
1.9329106e-08
-7.0532405e-06
1.9428085e-08
-5.7600507e-06
1.7679786e-08
-4.6226401e-06
1.4911991e-08
-3.5785136e-06
1.2053818e-08
-2.6723525e-06
9.3296484e-09
-1.9408718e-06
6.9764202e-09
-1.3912366e-06
5.124916e-09
-9.9567709e-07
3.7393502e-09
-7.148509e-07
2.7282326e-09
-5.1542074e-07
1.9900815e-09
-3.7257026e-07
1.4442661e-09
-2.6862995e-07
1.0142393e-09
-1.9258873e-07
6.7820478e-10
-1.3563089e-07
4.2902963e-10
-9.3151329e-08
2.58988e-10
-6.2230347e-08
1.4575647e-10
-4.0501103e-08
7.4980616e-11
-2.5515073e-08
3.3848335e-11
-1.5243595e-08
1.2124452e-11
-8.3377378e-09
2.5237667e-12
-3.8221467e-09
-9.9438909e-10
3.9994876e-09
-2.9590669e-05
7.2059189e-09
-2.5087686e-05
9.4188154e-09
-2.1618878e-05
1.0282652e-08
-1.8073292e-05
1.1042665e-08
-1.506342e-05
1.1644692e-08
-1.2547841e-05
1.2205554e-08
-1.0442609e-05
1.2671182e-08
-8.6181646e-06
1.3773922e-08
-7.0543437e-06
1.4323356e-08
-5.7605994e-06
1.3120677e-08
-4.6214379e-06
1.1003654e-08
-3.5763956e-06
8.9199309e-09
-2.6702693e-06
6.9916094e-09
-1.9389424e-06
5.3259051e-09
-1.3895712e-06
3.9966807e-09
-9.9434675e-07
2.9827275e-09
-7.1383709e-07
2.2255435e-09
-5.146624e-07
1.6600889e-09
-3.7200465e-07
1.2376691e-09
-2.6820632e-07
8.998867e-10
-1.9225052e-07
6.2849931e-10
-1.353584e-07
4.1902096e-10
-9.294138e-08
2.6599134e-10
-6.2076554e-08
1.5840429e-10
-4.0393094e-08
8.627428e-11
-2.544255e-08
4.1052733e-11
-1.519797e-08
1.539223e-11
-8.3117315e-09
3.3060433e-12
-3.8098218e-09
-9.9108304e-10
3.1653438e-09
-2.9593834e-05
5.5545891e-09
-2.5090075e-05
6.9681465e-09
-2.1620292e-05
7.1821416e-09
-1.8073506e-05
7.3874486e-09
-1.5063626e-05
7.5181846e-09
-1.2547971e-05
7.7004652e-09
-1.0442791e-05
8.2962877e-09
-8.61876e-06
9.7481587e-09
-7.055796e-06
1.0714275e-08
-5.7615648e-06
9.9191229e-09
-4.6206433e-06
8.2096383e-09
-3.5746854e-06
6.5937719e-09
-2.6686539e-06
5.1532558e-09
-1.937501e-06
3.9158133e-09
-1.3883342e-06
2.9239089e-09
-9.9335397e-07
2.1613229e-09
-7.1307474e-07
1.5902563e-09
-5.140905e-07
1.1662217e-09
-3.7158065e-07
8.5755556e-10
-2.6789684e-07
6.164085e-10
-1.9200919e-07
4.2494582e-10
-1.3516621e-07
2.7928613e-10
-9.2795462e-08
1.7517635e-10
-6.1971948e-08
1.0346103e-10
-4.032119e-08
5.6166334e-11
-2.5394988e-08
2.6611869e-11
-1.5168353e-08
9.935719e-12
-8.2949818e-09
2.1023391e-12
-3.8019376e-09
-9.8898069e-10
2.3935402e-09
-2.9596227e-05
4.0978552e-09
-2.5091779e-05
4.8873647e-09
-2.1621081e-05
4.6437671e-09
-1.8073263e-05
4.4689455e-09
-1.5063451e-05
4.2960317e-09
-1.2547798e-05
4.241699e-09
-1.0442737e-05
5.0292032e-09
-8.6195471e-06
6.8211856e-09
-7.0575884e-06
8.1562303e-09
-5.7628993e-06
7.6781663e-09
-4.6201656e-06
6.2530686e-09
-3.5732596e-06
4.9571431e-09
-2.6673584e-06
3.8577927e-09
-1.936401e-06
2.9265418e-09
-1.3874033e-06
2.1789169e-09
-9.9260565e-07
1.6006371e-09
-7.1249672e-07
1.1658267e-09
-5.1365504e-07
8.4420203e-10
-3.7125913e-07
6.1564718e-10
-2.6766766e-07
4.4140565e-10
-1.9183491e-07
3.0435607e-10
-1.3502864e-07
2.0008597e-10
-9.2691091e-08
1.2584608e-10
-6.1897359e-08
7.4639135e-11
-4.0269846e-08
4.0621849e-11
-2.5360825e-08
1.9347549e-11
-1.5146889e-08
7.2517332e-12
-8.282731e-09
1.5533842e-12
-3.7961323e-09
-9.8742731e-10
1.7116185e-09
-2.9597938e-05
2.8566339e-09
-2.5092924e-05
3.1680073e-09
-2.1621393e-05
2.6063113e-09
-1.8072701e-05
2.1705458e-09
-1.5063015e-05
1.7954387e-09
-1.2547423e-05
1.5843375e-09
-1.0442526e-05
2.5593972e-09
-8.6205218e-06
4.6370166e-09
-7.0596663e-06
6.2697282e-09
-5.7645316e-06
6.0298026e-09
-4.6199261e-06
4.8052511e-09
-3.5720345e-06
3.732745e-09
-2.6662863e-06
2.8776335e-09
-1.9355453e-06
2.1714382e-09
-1.3866975e-06
1.6068673e-09
-9.9204052e-07
1.1689872e-09
-7.1205912e-07
8.391522e-10
-5.1332471e-07
5.9648587e-10
-3.7101664e-07
4.2866149e-10
-2.6749942e-07
3.0502423e-10
-1.9171134e-07
2.0939898e-10
-1.3493271e-07
1.372216e-10
-9.2618917e-08
8.6324569e-11
-6.184629e-08
5.1417839e-11
-4.0234946e-08
2.8296307e-11
-2.5337606e-08
1.3557054e-11
-1.5132231e-08
5.1016551e-12
-8.2743153e-09
1.0714726e-12
-3.7921295e-09
-9.8635583e-10
1.129594e-09
-2.9599067e-05
1.8292591e-09
-2.5093623e-05
1.7855427e-09
-2.1621349e-05
1.0104163e-09
-1.8071926e-05
3.979496e-10
-1.5062403e-05
-1.1489047e-10
-1.254691e-05
-4.3307778e-10
-1.0442208e-05
7.0114668e-10
-8.6216558e-06
2.9963859e-09
-7.0619618e-06
4.8511262e-09
-5.7663859e-06
4.7832596e-09
-4.6198585e-06
3.7038205e-09
-3.5709545e-06
2.7937284e-09
-2.6653765e-06
2.1197091e-09
-1.9348706e-06
1.5842728e-09
-1.3861623e-06
1.1617021e-09
-9.9161727e-07
8.3425379e-10
-7.1173178e-07
5.8745346e-10
-5.1307721e-07
4.0662827e-10
-3.7083572e-07
2.8511991e-10
-2.6737712e-07
1.996008e-10
-1.9162551e-07
1.3533096e-10
-1.3486767e-07
8.7297906e-11
-9.2570517e-08
5.4121408e-11
-6.1812539e-08
3.1813295e-11
-4.0212265e-08
1.7161369e-11
-2.5322647e-08
8.1361272e-12
-1.5122794e-08
3.0439704e-12
-8.2688849e-09
6.9112015e-13
-3.7895432e-09
-9.8566471e-10
6.4595527e-10
-2.9599713e-05
1.0004421e-09
-2.5093977e-05
7.0299332e-10
-2.1621052e-05
-2.0780342e-10
-1.8071015e-05
-9.3523675e-10
-1.5061676e-05
-1.5391286e-09
-1.2546306e-05
-1.9266529e-09
-1.0441821e-05
-6.7011885e-10
-8.622912e-06
1.7693145e-09
-7.0644015e-06
3.7703332e-09
-5.7683865e-06
3.8179515e-09
-4.6199065e-06
2.84668e-09
-3.5699828e-06
2.0590865e-09
-2.6645892e-06
1.5224547e-09
-1.9343335e-06
1.1188428e-09
-1.385759e-06
8.0878052e-10
-9.9130672e-07
5.7119677e-10
-7.114944e-07
3.9305724e-10
-5.128986e-07
2.6351905e-10
-3.7070626e-07
1.7879062e-10
-2.6729197e-07
1.2276979e-10
-1.9156943e-07
8.199886e-11
-1.348265e-07
5.1941931e-11
-9.254032e-08
3.1738196e-11
-6.1792046e-08
1.8550621e-11
-4.0198996e-08
1.0229201e-11
-2.5314144e-08
4.8813348e-12
-1.5117512e-08
1.8309882e-12
-8.2658614e-09
3.7911976e-13
-3.7881099e-09
-9.8528558e-10
2.5487296e-10
-2.9599967e-05
3.4917716e-10
-2.5094071e-05
-1.2042603e-10
-2.1620583e-05
-1.105945e-09
-1.807003e-05
-1.9001756e-09
-1.5060882e-05
-2.55813e-09
-1.2545648e-05
-2.9850615e-09
-1.0441394e-05
-1.6378374e-09
-8.624259e-06
8.6998207e-10
-7.0669095e-06
2.9452931e-09
-5.7704615e-06
3.0603372e-09
-4.6200218e-06
2.1727391e-09
-3.5690948e-06
1.481142e-09
-2.663898e-06
1.0499482e-09
-1.9339019e-06
7.4731748e-10
-1.3854567e-06
5.2499224e-10
-9.9108399e-07
3.5927379e-10
-7.1132892e-07
2.3766018e-10
-5.1277663e-07
1.5110537e-10
-3.7061986e-07
9.718133e-11
-2.672377e-07
6.3897935e-11
-1.915362e-07
4.1030611e-11
-1.3480336e-07
2.4512047e-11
-9.25238e-08
1.4042431e-11
-6.1781384e-08
7.6740198e-12
-4.0192561e-08
3.8916601e-12
-2.5310305e-08
1.7890852e-12
-1.511525e-08
6.4878661e-13
-8.264604e-09
1.4797241e-13
-3.7875282e-09
-9.8513762e-10
-5.033357e-11
-2.9599916e-05
-1.4671074e-10
-2.5093975e-05
-7.2180285e-10
-2.1620008e-05
-1.7263725e-09
-1.8069025e-05
-2.5490208e-09
-1.5060059e-05
-3.2327416e-09
-1.2544964e-05
-3.6787129e-09
-1.0440948e-05
-2.269695e-09
-8.6256678e-06
2.374831e-10
-7.0694169e-06
2.3216025e-09
-5.7725453e-06
2.4646778e-09
-4.6201651e-06
1.6457194e-09
-3.5682755e-06
1.033741e-09
-2.6632863e-06
6.8497465e-10
-1.9335528e-06
4.59609e-10
-1.3852316e-06
3.0491464e-10
-9.9092902e-07
1.9617436e-10
-7.1122048e-07
1.2100581e-10
-5.1270128e-07
7.0595674e-11
-3.7056973e-07
4.1905835e-11
-2.6720896e-07
2.5768532e-11
-1.9152032e-07
1.5720499e-11
-1.3479335e-07
8.5706874e-12
-9.2516826e-08
4.4554903e-12
-6.1777334e-08
2.1837038e-12
-4.0190431e-08
1.1594262e-12
-2.5309289e-08
4.9287808e-13
-1.5114798e-08
1.6237587e-13
-8.2644158e-09
4.7592236e-15
-3.7874688e-09
-9.8513285e-10
-2.7754083e-10
-2.9599638e-05
-5.0825063e-10
-2.5093744e-05
-1.1324561e-09
-2.1619383e-05
-2.1077672e-09
-1.806805e-05
-2.9273039e-09
-1.505924e-05
-3.6130709e-09
-1.2544278e-05
-4.0628758e-09
-1.0440498e-05
-2.6248035e-09
-8.6271056e-06
-1.7210893e-10
-7.0718698e-06
1.8633864e-09
-5.7745805e-06
2.0024839e-09
-4.6203044e-06
1.2427957e-09
-3.5675154e-06
6.9949536e-10
-2.6627432e-06
4.1634846e-10
-1.9332692e-06
2.501362e-10
-1.3850656e-06
1.4665636e-10
-9.9082506e-07
8.0836428e-11
-7.1115473e-07
4.0685472e-11
-5.1266061e-07
1.7137805e-11
-3.705461e-07
6.2776022e-12
-2.6719748e-07
2.2128334e-12
-1.9151601e-07
8.1878722e-13
-1.3479134e-07
-2.8159659e-13
-9.2515442e-08
-6.6771423e-13
-6.1776488e-08
-8.8110153e-13
-4.0189926e-08
-8.5633517e-13
-2.530908e-08
-5.5046447e-13
-1.5114763e-08
-2.466421e-13
-8.2644449e-09
-1.9159881e-14
-3.7875067e-09
-9.8515201e-10
-4.3699663e-10
-2.9599201e-05
-7.5222046e-10
-2.5093428e-05
-1.378507e-09
-2.1618757e-05
-2.2961216e-09
-1.8067132e-05
-3.0839057e-09
-1.5058452e-05
-3.748215e-09
-1.2543614e-05
-4.1900718e-09
-1.0440057e-05
-2.7513069e-09
-8.6285442e-06
-3.9195971e-10
-7.0742293e-06
1.5482985e-09
-5.7765205e-06
1.6622856e-09
-4.6204186e-06
9.5908135e-10
-3.5668119e-06
4.7982327e-10
-2.6622642e-06
2.5100188e-10
-1.9330401e-06
1.2955162e-10
-1.3849443e-06
6.1410411e-11
-9.9075662e-07
2.2689282e-11
-7.1111619e-07
2.470413e-12
-5.1264012e-07
-6.802283e-12
-3.7053695e-07
-8.4223316e-12
-2.6719564e-07
-6.129534e-12
-1.9151834e-07
-2.8440055e-12
-1.3479444e-07
-7.0772188e-13
-9.2517543e-08
3.2034678e-13
-6.1777383e-08
4.8914597e-13
-4.0190093e-08
5.0597618e-13
-2.5308996e-08
2.6165316e-13
-1.5114644e-08
9.8258759e-14
-8.2643572e-09
6.0502955e-15
-3.7874667e-09
-9.8514596e-10
-5.4006356e-10
-2.9598661e-05
-8.9677942e-10
-2.5093071e-05
-1.488665e-09
-2.1618165e-05
-2.3355539e-09
-1.8066286e-05
-3.0705712e-09
-1.5057717e-05
-3.6948701e-09
-1.2542989e-05
-4.1088602e-09
-1.0439643e-05
-2.6986882e-09
-8.6299542e-06
-4.6712079e-10
-7.076461e-06
1.3407047e-09
-5.7783281e-06
1.4133727e-09
-4.6204915e-06
7.6411258e-10
-3.5661624e-06
3.4385107e-10
-2.6618441e-06
1.5765651e-10
-1.9328536e-06
6.5664233e-11
-1.3848526e-06
1.6935603e-11
-9.9070764e-07
-9.547939e-12
-7.1108988e-07
-2.2884072e-11
-5.1262658e-07
-2.7368272e-11
-3.7053259e-07
-2.4565144e-11
-2.6719826e-07
-1.8102712e-11
-1.9152487e-07
-1.1193508e-11
-1.348012e-07
-6.3801297e-12
-9.2522385e-08
-3.251092e-12
-6.1780404e-08
-1.6192986e-12
-4.01917e-08
-7.9024349e-13
-2.5309789e-08
-3.4036913e-13
-1.5115007e-08
-1.2490156e-13
-8.2645051e-09
-1.9033434e-14
-3.7875259e-09
-9.8516499e-10
-5.9691176e-10
-2.9598064e-05
-9.6092564e-10
-2.5092707e-05
-1.4951767e-09
-2.1617631e-05
-2.2597018e-09
-1.8065521e-05
-2.9281442e-09
-1.5057048e-05
-3.501085e-09
-1.2542416e-05
-3.8769456e-09
-1.0439267e-05
-2.5226225e-09
-8.6313084e-06
-4.5046201e-10
-7.0785333e-06
1.1958681e-09
-5.7799742e-06
1.2122888e-09
-4.6205081e-06
6.114354e-10
-3.5655614e-06
2.438019e-10
-2.6614767e-06
9.1050542e-11
-1.9327006e-06
1.9767165e-11
-1.3847815e-06
-1.6491196e-11
-9.9067121e-07
-3.5765986e-11
-7.110708e-07
-4.4450374e-11
-5.126178e-07
-4.5351079e-11
-3.7053188e-07
-3.8895373e-11
-2.672047e-07
-2.882348e-11
-1.9153511e-07
-1.9260149e-11
-1.3481082e-07
-1.2053695e-11
-9.2529707e-08
-6.985141e-12
-6.1785541e-08
-3.8095304e-12
-4.0194965e-08
-1.8473627e-12
-2.5311773e-08
-8.2808513e-13
-1.5116155e-08
-3.0650991e-13
-8.2651152e-09
-8.2331352e-14
-3.7878112e-09
-9.8524731e-10
-6.1604174e-10
-2.9597447e-05
-9.6365942e-10
-2.509236e-05
-1.4277339e-09
-2.1617167e-05
-2.1010439e-09
-1.8064848e-05
-2.6929959e-09
-1.5056457e-05
-3.2071251e-09
-1.2541902e-05
-3.5481031e-09
-1.0438926e-05
-2.2705582e-09
-8.6325858e-06
-3.7994898e-10
-7.080424e-06
1.0850844e-09
-5.781439e-06
1.0347048e-09
-4.6204578e-06
4.7605124e-10
-3.5650024e-06
1.5491925e-10
-2.6611556e-06
2.9629732e-11
-1.9325749e-06
-2.4720969e-11
-1.3847271e-06
-4.9653738e-11
-9.9064575e-07
-6.1108541e-11
-7.1105919e-07
-6.385972e-11
-5.1261438e-07
-6.0656442e-11
-3.7053473e-07
-5.088114e-11
-2.6721363e-07
-3.8433913e-11
-1.9154701e-07
-2.6590245e-11
-1.3482179e-07
-1.7608184e-11
-9.2538163e-08
-1.1025054e-11
-6.179147e-08
-6.694492e-12
-4.0198842e-08
-3.8991496e-12
-2.5314222e-08
-1.9613736e-12
-1.5117636e-08
-7.6482249e-13
-8.2659399e-09
-1.1304232e-13
-3.7882063e-09
-9.8536035e-10
-6.064366e-10
-2.9596841e-05
-9.213583e-10
-2.5092045e-05
-1.3104995e-09
-2.1616778e-05
-1.8898797e-09
-1.8064268e-05
-2.4027361e-09
-1.5055944e-05
-2.856099e-09
-1.2541449e-05
-3.1599658e-09
-1.0438622e-05
-1.9752129e-09
-8.6337704e-06
-2.7745393e-10
-7.0821218e-06
9.9878282e-10
-5.7827151e-06
8.7958342e-10
-4.6203387e-06
3.6101955e-10
-3.5644836e-06
8.4266427e-11
-2.660879e-06
-1.5722792e-11
-1.9324747e-06
-5.4083564e-11
-1.3846888e-06
-6.7515701e-11
-9.9063199e-07
-7.0513037e-11
-7.1105618e-07
-6.8388359e-11
-5.1261614e-07
-6.2358988e-11
-3.7054065e-07
-5.1287001e-11
-2.6722431e-07
-3.8061871e-11
-1.9156002e-07
-2.6016787e-11
-1.3483345e-07
-1.6851859e-11
-9.2547082e-08
-1.0290163e-11
-6.179774e-08
-5.9793404e-12
-4.0203023e-08
-3.0964018e-12
-2.5316922e-08
-1.4828539e-12
-1.5119298e-08
-5.6770265e-13
-8.2668773e-09
-1.3003932e-13
-3.7886593e-09
-9.8549039e-10
-5.7598564e-10
-2.9596264e-05
-8.4741136e-10
-2.5091773e-05
-1.1626174e-09
-2.1616463e-05
-1.6528357e-09
-1.8063778e-05
-2.0892135e-09
-1.5055507e-05
-2.4828213e-09
-1.2541055e-05
-2.7492186e-09
-1.0438356e-05
-1.6668069e-09
-8.6348527e-06
-1.6430924e-10
-7.0836244e-06
9.2383369e-10
-5.7838031e-06
7.3695694e-10
-4.620152e-06
2.5507521e-10
-3.5640015e-06
1.8527577e-11
-2.6606426e-06
-6.0017939e-11
-1.9323959e-06
-8.5036466e-11
-1.3846639e-06
-8.8179284e-11
-9.906286e-07
-8.331531e-11
-7.1106109e-07
-7.5689183e-11
-5.126235e-07
-6.6304922e-11
-3.7055e-07
-5.3404247e-11
-2.6723691e-07
-3.9438324e-11
-1.9157388e-07
-2.7199846e-11
-1.348454e-07
-1.8081336e-11
-9.2556088e-08
-1.1405508e-11
-6.1804201e-08
-6.8928379e-12
-4.0207403e-08
-3.9416444e-12
-2.5319798e-08
-1.929634e-12
-1.5121096e-08
-7.4953524e-13
-8.2679015e-09
-1.4351329e-13
-3.7891577e-09
-9.8563391e-10
-5.3072014e-10
-2.9595733e-05
-7.5304791e-10
-2.5091551e-05
-9.9945299e-10
-2.1616217e-05
-1.4084501e-09
-1.8063369e-05
-1.7744751e-09
-1.5055141e-05
-2.1118964e-09
-1.2540718e-05
-2.3427329e-09
-1.0438125e-05
-1.3661634e-09
-8.6358292e-06
-5.2856006e-11
-7.0849378e-06
8.5583876e-10
-5.7847117e-06
6.0693236e-10
-4.6199031e-06
1.5928114e-10
-3.5635537e-06
-4.0409065e-11
-2.660443e-06
-1.0006861e-10
-1.9323361e-06
-1.128208e-10
-1.3846513e-06
-1.0612088e-10
-9.9063523e-07
-9.2900872e-11
-7.1107447e-07
-7.9061692e-11
-5.1263735e-07
-6.5674934e-11
-3.7056359e-07
-5.0876271e-11
-2.6725183e-07
-3.6289265e-11
-1.9158868e-07
-2.4173644e-11
-1.348577e-07
-1.5489016e-11
-9.2564934e-08
-9.3969807e-12
-6.1810441e-08
-5.3883805e-12
-4.0211565e-08
-2.7175395e-12
-2.532251e-08
-1.2794148e-12
-1.5122788e-08
-4.9013412e-13
-8.2688687e-09
-1.3833777e-13
-3.7896324e-09
-9.8577223e-10
-4.7592481e-10
-2.9595257e-05
-6.4704147e-10
-2.5091379e-05
-8.3139893e-10
-2.1616032e-05
-1.1689665e-09
-1.8063032e-05
-1.4733406e-09
-1.5054837e-05
-1.7610553e-09
-1.254043e-05
-1.960036e-09
-1.0437926e-05
-1.0876502e-09
-8.6367015e-06
4.9227951e-11
-7.0860748e-06
7.9199704e-10
-5.7854543e-06
4.8885789e-10
-4.6196001e-06
7.2757897e-11
-3.5631374e-06
-9.4389997e-11
-2.6602759e-06
-1.3823436e-10
-1.932292e-06
-1.4184744e-10
-1.3846476e-06
-1.276394e-10
-9.90649e-07
-1.0808131e-10
-7.1109386e-07
-8.8848801e-11
-5.1265601e-07
-7.1712047e-11
-3.7058036e-07
-5.4452497e-11
-2.6726832e-07
-3.8650187e-11
-1.9160395e-07
-2.573446e-11
-1.348698e-07
-1.683698e-11
-9.2573315e-08
-1.0619798e-11
-6.1816035e-08
-6.5581455e-12
-4.0215172e-08
-3.9432401e-12
-2.5324807e-08
-2.0175834e-12
-1.5124219e-08
-8.007703e-13
-8.2696966e-09
-1.2127435e-13
-3.7900434e-09
-9.8589351e-10
-4.1593806e-10
-2.9594841e-05
-5.3618112e-10
-2.5091259e-05
-6.667956e-10
-2.1615902e-05
-9.4507242e-10
-1.8062753e-05
-1.1977219e-09
-1.5054584e-05
-1.4428263e-09
-1.2540185e-05
-1.6141455e-09
-1.0437755e-05
-8.3999547e-10
-8.6374755e-06
1.3828087e-10
-7.0870531e-06
7.3245303e-10
-5.7860483e-06
3.8528354e-10
-4.619253e-06
-4.6216658e-13
-3.5627515e-06
-1.3725725e-10
-2.6601392e-06
-1.6641064e-10
-1.9322626e-06
-1.6176173e-10
-1.3846524e-06
-1.4092874e-10
-9.9066966e-07
-1.1549732e-10
-7.1111934e-07
-9.1342381e-11
-5.1267999e-07
-7.0488343e-11
-3.7060122e-07
-5.1198003e-11
-2.6728745e-07
-3.4494955e-11
-1.9162059e-07
-2.1926512e-11
-1.3488221e-07
-1.3406863e-11
-9.258173e-08
-7.8601895e-12
-6.1821454e-08
-4.4408914e-12
-4.0218578e-08
-2.1911236e-12
-2.5326941e-08
-1.0555268e-12
-1.5125539e-08
-4.1306204e-13
-8.2704607e-09
-1.1449375e-13
-3.7904259e-09
-9.86008e-10
-3.5424993e-10
-2.9594487e-05
-4.2560628e-10
-2.5091188e-05
-5.1140607e-10
-2.1615816e-05
-7.4262481e-10
-1.8062522e-05
-9.5409043e-10
-1.5054373e-05
-1.1645122e-09
-1.2539974e-05
-1.3128596e-09
-1.0437606e-05
-6.2901686e-10
-8.6381593e-06
2.0903506e-10
-7.0878912e-06
6.725469e-10
-5.7865117e-06
2.9023978e-10
-4.6188708e-06
-6.7858109e-11
-3.5623933e-06
-1.778632e-10
-2.6600293e-06
-1.9477339e-10
-1.9322456e-06
-1.8367763e-10
-1.3846636e-06
-1.5792761e-10
-9.9069531e-07
-1.2785588e-10
-7.1114951e-07
-9.9547672e-11
-5.1270821e-07
-7.5252308e-11
-3.7062559e-07
-5.3434472e-11
-2.6730918e-07
-3.546108e-11
-1.9163861e-07
-2.2457513e-11
-1.3489513e-07
-1.3981289e-11
-9.2590227e-08
-8.4131469e-12
-6.1826951e-08
-4.9499523e-12
-4.0222008e-08
-2.8039337e-12
-2.5329083e-08
-1.3702656e-12
-1.5126846e-08
-5.403663e-13
-8.2712053e-09
-1.1112585e-13
-3.7907962e-09
-9.8611914e-10
-2.9393389e-10
-2.9594193e-05
-3.1919029e-10
-2.5091162e-05
-3.6882904e-10
-2.1615766e-05
-5.6509438e-10
-1.8062326e-05
-7.4567382e-10
-1.5054192e-05
-9.2915595e-10
-1.2539791e-05
-1.0593646e-09
-1.0437476e-05
-4.5666813e-10
-8.638762e-06
2.5920552e-10
-7.0886071e-06
6.1032251e-10
-5.7868628e-06
2.0222897e-10
-4.6184627e-06
-1.2987601e-10
-3.5620612e-06
-2.1903518e-10
-2.6599402e-06
-2.2357354e-10
-1.932241e-06
-2.0566237e-10
-1.3846816e-06
-1.7468838e-10
-9.9072632e-07
-1.3983084e-10
-7.1118456e-07
-1.0713994e-10
-5.1274105e-07
-7.8990701e-11
-3.7065401e-07
-5.4333356e-11
-2.6733411e-07
-3.466048e-11
-1.9165859e-07
-2.1060541e-11
-1.3490907e-07
-1.2375332e-11
-9.2599164e-08
-7.0038211e-12
-6.1832576e-08
-3.8087056e-12
-4.0225409e-08
-1.8345074e-12
-2.5331155e-08
-8.5164167e-13
-1.5128098e-08
-3.3247707e-13
-8.2719171e-09
-1.0870474e-13
-3.7911529e-09
-9.8622783e-10
-2.3692447e-10
-2.9593956e-05
-2.1950671e-10
-2.509118e-05
-2.4083973e-10
-2.1615745e-05
-4.1349471e-10
-1.8062153e-05
-5.7253888e-10
-1.5054033e-05
-7.3603139e-10
-1.2539627e-05
-8.5289458e-10
-1.0437359e-05
-3.2239991e-10
-8.6392924e-06
2.8709042e-10
-7.0892167e-06
5.4154514e-10
-5.7871171e-06
1.1378266e-10
-4.618035e-06
-1.9570007e-10
-3.5617515e-06
-2.6351432e-10
-2.6598724e-06
-2.5744665e-10
-1.9322468e-06
-2.3387113e-10
-1.3847051e-06
-1.9847359e-10
-9.9076127e-07
-1.5967685e-10
-7.1122311e-07
-1.227861e-10
-5.127773e-07
-9.068741e-11
-3.7068566e-07
-6.2488395e-11
-2.6736144e-07
-4.0325045e-11
-1.9168011e-07
-2.4683328e-11
-1.3492379e-07
-1.4880867e-11
-9.2608368e-08
-8.8263756e-12
-6.183794e-08
-5.3160149e-12
-4.0228417e-08
-3.2342694e-12
-2.5332885e-08
-1.6849268e-12
-1.5129124e-08
-6.8076415e-13
-8.2725084e-09
-9.3917859e-14
-3.7914549e-09
-9.8632175e-10
-1.8423684e-10
-2.9593771e-05
-1.2784039e-10
-2.5091236e-05
-1.2783732e-10
-2.1615745e-05
-2.8639032e-10
-1.8061995e-05
-4.3153516e-10
-1.5053888e-05
-5.8062995e-10
-1.2539478e-05
-6.8784428e-10
-1.0437252e-05
-2.1985937e-10
-8.6397603e-06
2.9876888e-10
-7.0897353e-06
4.7212317e-10
-5.7872904e-06
3.1069968e-11
-4.617594e-06
-2.5653382e-10
-3.5614637e-06
-2.9931459e-10
-2.6598297e-06
-2.8222856e-10
-1.9322637e-06
-2.5187628e-10
-1.3847355e-06
-2.1165837e-10
-9.908013e-07
-1.6868085e-10
-7.1126607e-07
-1.2814707e-10
-5.1281763e-07
-9.2641426e-11
-3.707211e-07
-6.195894e-11
-2.6739191e-07
-3.8040577e-11
-1.917039e-07
-2.1729208e-11
-1.3493988e-07
-1.1703696e-11
-9.2618231e-08
-6.0090225e-12
-6.1843464e-08
-3.0410322e-12
-4.0231337e-08
-1.3390741e-12
-2.5334451e-08
-6.3083058e-13
-1.5129996e-08
-2.5308831e-13
-8.2729933e-09
-7.9310663e-14
-3.7917026e-09
-9.8640106e-10
-1.3635393e-10
-2.9593635e-05
-4.4621786e-11
-2.5091328e-05
-2.9282967e-11
-2.1615761e-05
-1.8148386e-10
-1.8061843e-05
-3.188141e-10
-1.5053751e-05
-4.5822166e-10
-1.2539339e-05
-5.588236e-10
-1.0437152e-05
-1.4403347e-10
-8.640175e-06
2.983122e-10
-7.0901777e-06
4.0626468e-10
-5.7873983e-06
-5.2228726e-11
-4.6171356e-06
-3.1734249e-10
-3.5611985e-06
-3.3995522e-10
-2.6598071e-06
-3.1123958e-10
-1.9322924e-06
-2.7374008e-10
-1.3847731e-06
-2.2876569e-10
-9.9084618e-07
-1.8221291e-10
-7.113127e-07
-1.3856865e-10
-5.1286118e-07
-1.001481e-10
-3.7075957e-07
-6.6756183e-11
-2.674252e-07
-4.0888232e-11
-1.9172978e-07
-2.3356218e-11
-1.3495732e-07
-1.2733181e-11
-9.262886e-08
-6.5990722e-12
-6.1849515e-08
-3.4065851e-12
-4.0234482e-08
-1.819409e-12
-2.5336039e-08
-8.5184649e-13
-1.5130805e-08
-3.3772508e-13
-8.2734033e-09
-6.5019583e-14
-3.7919034e-09
-9.8646608e-10
-9.3245964e-11
-2.9593541e-05
3.027632e-11
-2.5091451e-05
5.6000922e-11
-2.1615786e-05
-9.5329371e-11
-1.8061691e-05
-2.3027177e-10
-1.5053616e-05
-3.6490346e-10
-1.2539204e-05
-4.626114e-10
-1.0437054e-05
-9.5465382e-11
-8.6405421e-06
2.7898322e-10
-7.0905522e-06
3.3066866e-10
-5.7874499e-06
-1.3158123e-10
-4.6166734e-06
-3.7652263e-10
-3.5609536e-06
-3.8118002e-10
-2.6598026e-06
-3.4074522e-10
-1.9323328e-06
-2.9503067e-10
-1.3848189e-06
-2.4462521e-10
-9.9089671e-07
-1.9421865e-10
-7.1136335e-07
-1.4764872e-10
-5.1290801e-07
-1.0649101e-10
-3.7080108e-07
-7.0616458e-11
-2.6746149e-07
-4.2697906e-11
-1.9175814e-07
-2.3869441e-11
-1.3497663e-07
-1.2223542e-11
-9.264086e-08
-5.6204702e-12
-6.1856475e-08
-2.3079676e-12
-4.0238079e-08
-6.8700185e-13
-2.5337798e-08
-2.0593751e-13
-1.5131642e-08
-6.7143338e-14
-8.2737978e-09
-5.9410781e-14
-3.7920877e-09
-9.8652548e-10
-5.489287e-11
-2.9593486e-05
9.7076075e-11
-2.5091603e-05
1.3025646e-10
-2.1615819e-05
-2.3998075e-11
-1.8061537e-05
-1.6101924e-10
-1.5053479e-05
-2.957526e-10
-1.2539069e-05
-3.9454695e-10
-1.0436955e-05
-7.0718748e-11
-8.6408659e-06
2.4181359e-10
-7.0908648e-06
2.4268747e-10
-5.7874507e-06
-2.1254232e-10
-4.6162182e-06
-4.4184209e-10
-3.5607241e-06
-4.329156e-10
-2.6598115e-06
-3.8272417e-10
-1.9323828e-06
-3.2976569e-10
-1.3848718e-06
-2.7429387e-10
-9.9095182e-07
-2.2052819e-10
-7.1141692e-07
-1.6997325e-10
-5.1295804e-07
-1.2541371e-10
-3.7084527e-07
-8.5872677e-11
-2.6750032e-07
-5.4634776e-11
-1.9178886e-07
-3.2566511e-11
-1.3499794e-07
-1.8503903e-11
-9.2654448e-08
-9.9449935e-12
-6.1864474e-08
-5.2959078e-12
-4.0242334e-08
-2.8732071e-12
-2.5339952e-08
-1.3868499e-12
-1.5132705e-08
-5.4037501e-13
-8.2743151e-09
-7.3388997e-14
-3.7923274e-09
-9.8659888e-10
-2.0944123e-11
-2.9593465e-05
1.544428e-10
-2.5091778e-05
1.9248007e-10
-2.1615858e-05
3.2931471e-11
-1.8061377e-05
-1.0737029e-10
-1.5053339e-05
-2.4330797e-10
-1.2538933e-05
-3.4410487e-10
-1.0436854e-05
-5.7031028e-11
-8.6411529e-06
2.0375129e-10
-7.0911256e-06
1.648525e-10
-5.7874117e-06
-2.8795304e-10
-4.6157654e-06
-5.0531217e-10
-3.5605067e-06
-4.8051719e-10
-2.6598363e-06
-4.1770345e-10
-1.9324455e-06
-3.5437505e-10
-1.3849352e-06
-2.9151447e-10
-9.9101459e-07
-2.326809e-10
-7.114758e-07
-1.7931297e-10
-5.1301134e-07
-1.3217823e-10
-3.7089245e-07
-9.0631021e-11
-2.6754182e-07
-5.7462822e-11
-1.9182204e-07
-3.408841e-11
-1.3502129e-07
-1.8931437e-11
-9.2669586e-08
-9.7852472e-12
-6.1873597e-08
-4.7639377e-12
-4.0247398e-08
-2.0217413e-12
-2.5342635e-08
-8.5541613e-13
-1.5134081e-08
-3.1248671e-13
-8.2750014e-09
-9.4064989e-14
-3.7926448e-09
-9.8669294e-10
7.7627698e-12
-2.9593473e-05
2.0301463e-10
-2.5091973e-05
2.4412108e-10
-2.1615899e-05
7.7270977e-11
-1.8061211e-05
-6.7331514e-11
-1.5053194e-05
-2.0549203e-10
-1.2538795e-05
-3.0933231e-10
-1.0436751e-05
-5.5038689e-11
-8.6414072e-06
1.5996559e-10
-7.0913406e-06
8.6957664e-11
-5.7873387e-06
-3.6190503e-10
-4.6153166e-06
-5.6207903e-10
-3.5603064e-06
-5.2330086e-10
-2.6598752e-06
-4.488659e-10
-1.9325199e-06
-3.756741e-10
-1.3850084e-06
-3.0574172e-10
-9.9108447e-07
-2.4240675e-10
-7.1153921e-07
-1.8739242e-10
-5.1306631e-07
-1.3919019e-10
-3.7094072e-07
-9.652159e-11
-2.6758447e-07
-6.22663e-11
-1.9185635e-07
-3.7872884e-11
-1.3504565e-07
-2.1932411e-11
-9.2685558e-08
-1.1933974e-11
-6.188356e-08
-6.1994482e-12
-4.025312e-08
-3.0622317e-12
-2.5345764e-08
-1.3629235e-12
-1.5135711e-08
-5.0587467e-13
-8.2758078e-09
-1.0534162e-13
-3.7930104e-09
-9.8679828e-10
3.1188337e-11
-2.9593504e-05
2.4461322e-10
-2.5092187e-05
2.8818886e-10
-2.1615942e-05
1.1312143e-10
-1.8061036e-05
-3.7897755e-11
-1.5053043e-05
-1.8084971e-10
-1.2538652e-05
-2.8963208e-10
-1.0436642e-05
-6.5536131e-11
-8.6416312e-06
1.075187e-10
-7.0915136e-06
3.6106149e-12
-5.7872347e-06
-4.409395e-10
-4.6148721e-06
-6.1943537e-10
-3.5601279e-06
-5.6897612e-10
-2.6599256e-06
-4.8393403e-10
-1.9326049e-06
-4.0088139e-10
-1.3850916e-06
-3.2331626e-10
-9.9116208e-07
-2.5467856e-10
-7.1160799e-07
-1.9641298e-10
-5.1312475e-07
-1.458849e-10
-3.7099148e-07
-1.0151822e-10
-2.6762911e-07
-6.5733114e-11
-1.9189242e-07
-4.0221927e-11
-1.350715e-07
-2.3325185e-11
-9.2702676e-08
-1.2740276e-11
-6.1894385e-08
-6.5410035e-12
-4.025948e-08
-3.0699535e-12
-2.5349334e-08
-1.3254995e-12
-1.5137635e-08
-4.8194441e-13
-8.2767834e-09
-1.273376e-13
-3.7934561e-09
-9.869256e-10
5.1112054e-11
-2.9593555e-05
2.7934916e-10
-2.5092415e-05
3.2443334e-10
-2.1615987e-05
1.4217762e-10
-1.8060853e-05
-1.6143166e-11
-1.5052885e-05
-1.6479466e-10
-1.2538503e-05
-2.7941279e-10
-1.0436527e-05
-8.3685516e-11
-8.6418269e-06
5.0571139e-11
-7.0916479e-06
-8.1525062e-11
-5.7871024e-06
-5.2134526e-10
-4.6144322e-06
-6.8641266e-10
-3.5599626e-06
-6.2611349e-10
-2.6599858e-06
-5.3148054e-10
-1.9326991e-06
-4.3918507e-10
-1.3851836e-06
-3.5359868e-10
-9.9124705e-07
-2.789373e-10
-7.1168219e-07
-2.1582355e-10
-5.1318696e-07
-1.6208228e-10
-3.7104446e-07
-1.1464158e-10
-2.6767534e-07
-7.6256882e-11
-1.919298e-07
-4.7946082e-11
-1.3509853e-07
-2.9024683e-11
-9.2720704e-08
-1.685504e-11
-6.1905617e-08
-9.5606297e-12
-4.0266083e-08
-5.3190627e-12
-2.5353085e-08
-2.6046414e-12
-1.5139706e-08
-1.0027654e-12
-8.2778673e-09
-1.4249012e-13
-3.7939589e-09
-9.8706809e-10
6.7860732e-11
-2.9593623e-05
3.0816818e-10
-2.5092655e-05
3.538225e-10
-2.1616033e-05
1.6596424e-10
-1.8060665e-05
3.2070914e-13
-1.5052719e-05
-1.5439491e-10
-1.2538349e-05
-2.7501202e-10
-1.0436407e-05
-1.0547302e-10
-8.6419963e-06
-5.8733236e-12
-7.0917475e-06
-1.6253498e-10
-5.7869457e-06
-5.9529832e-10
-4.6139994e-06
-7.4653273e-10
-3.5598112e-06
-6.7556138e-10
-2.6600568e-06
-5.7052454e-10
-1.9328039e-06
-4.6785846e-10
-1.3852862e-06
-3.7344468e-10
-9.9134113e-07
-2.9184215e-10
-7.1176358e-07
-2.2320191e-10