/*--------------------------------*- C++ -*----------------------------------*\
| =========                 |                                                 |
| \\      /  F ield         | OpenFOAM: The Open Source CFD Toolbox           |
|  \\    /   O peration     | Version:  v2012                                 |
|   \\  /    A nd           | Website:  www.openfoam.com                      |
|    \\/     M anipulation  |                                                 |
\*---------------------------------------------------------------------------*/
FoamFile
{
    version     2.0;
    format      ascii;
    class       volScalarField;
    location    "50";
    object      rho;
}
// * * * * * * * * * * * * * * * * * * * * * * * * * * * * * * * * * * * * * //

dimensions      [1 -3 0 0 0 0 0];


internalField   nonuniform List<scalar> 
24000
(
23.561535
23.554945
23.553067
23.549047
23.544139
23.536676
23.518697
23.442351
23.197069
22.828379
22.139955
20.843594
19.069833
17.144193
15.34189
13.762155
12.389467
11.185342
10.120282
9.1821071
8.4130606
7.768134
7.2051449
6.7056149
6.2959548
5.9779884
5.7227094
5.5201283
5.3583253
5.2274588
23.560886
23.554041
23.552259
23.548348
23.543487
23.535902
23.517873
23.442527
23.195666
22.824048
22.125873
20.813728
19.024805
17.089016
15.284134
13.706737
12.337872
11.137612
10.076703
9.1444908
8.3828918
7.7415657
7.1805462
6.6838424
6.2791466
5.9654734
5.7133633
5.5128664
5.3523341
5.2222611
23.560112
23.553111
23.551407
23.547587
23.542792
23.535263
23.517293
23.441916
23.195755
22.822454
22.117029
20.798031
19.004488
17.065652
15.260884
13.68612
12.32097
11.124788
10.067918
9.1394121
8.3809
7.7415336
7.1812016
6.685253
6.2800919
5.9661553
5.7138805
5.5132906
5.3527081
5.2226113
23.559304
23.552158
23.550535
23.546808
23.542063
23.534559
23.516608
23.441152
23.195667
22.821236
22.11018
20.78608
18.989544
17.048346
15.242891
13.669084
12.305526
11.11115
10.056187
9.1297281
8.3728119
7.7350032
7.1762049
6.6820396
6.2773671
5.9639318
5.7120253
5.5116777
5.351255
5.2212666
23.558484
23.551184
23.549644
23.546014
23.541312
23.533832
23.515905
23.440324
23.195777
22.820625
22.104728
20.776927
18.979063
17.036654
15.230797
13.657524
12.295046
11.101895
10.04828
9.1234247
8.3677012
7.730995
7.1732841
6.6800104
6.275911
5.9628123
5.7111002
5.5108854
5.3505518
5.2206228
23.557645
23.550187
23.548735
23.545204
23.540541
23.533066
23.515134
23.439518
23.196006
22.820412
22.100135
20.769329
18.971006
17.02797
15.221708
13.648598
12.286628
11.094167
10.041443
9.1178986
8.3631476
7.7272488
7.1704305
6.6779843
6.2745098
5.9617731
5.7102742
5.5101849
5.3499291
5.2200525
23.556782
23.549166
23.547802
23.54437
23.539741
23.532258
23.514299
23.438729
23.196333
22.820509
22.096132
20.762768
18.964599
17.021423
15.214854
13.641737
12.279988
11.08792
10.035821
9.1133722
8.3594436
7.7241463
7.1679798
6.6762291
6.2732972
5.9609022
5.7095991
5.509628
5.349447
5.2196189
23.555893
23.548118
23.546843
23.543513
23.538914
23.531409
23.513409
23.437953
23.196724
22.820832
22.092549
20.756923
18.959332
17.016416
15.209686
13.636496
12.274807
11.082939
10.031277
9.1097299
8.3564956
7.7216504
7.1659651
6.6747787
6.2723161
5.9602241
5.7091046
5.5092318
5.3491045
5.2193104
23.554979
23.547044
23.545856
23.542629
23.538061
23.530525
23.512472
23.437185
23.19715
22.821309
22.089271
20.7516
18.954897
17.012573
15.205851
13.632588
12.270869
11.079066
10.02768
9.1068566
8.3542201
7.7197123
7.1643637
6.6736052
6.2715248
5.9596904
5.7087209
5.5089366
5.3488618
5.219099
23.55404
23.545943
23.544841
23.541719
23.537182
23.529611
23.511492
23.436414
23.197578
22.821875
22.086219
20.746673
18.951088
17.009633
15.203096
13.629823
12.268057
11.076244
10.025014
9.1047335
8.3526067
7.7183464
7.1631961
6.6727298
6.2709504
5.9593287
5.7084914
5.5087793
5.3487406
5.2189971
23.553076
23.544817
23.543805
23.540787
23.536284
23.528675
23.510481
23.435642
23.197985
22.822478
22.083218
20.742075
18.947765
17.007397
15.201206
13.628022
12.266249
11.074409
10.02326
9.1033523
8.3516503
7.7175446
7.1624895
6.6722047
6.2706307
5.9591622
5.7084156
5.5087476
5.348731
5.2189985
23.552084
23.543664
23.542747
23.539836
23.535364
23.527717
23.509444
23.434878
23.198325
22.823064
22.08045
20.737744
18.944813
17.005688
15.199971
13.626973
12.265262
11.073432
10.022343
9.1027045
8.3512579
7.7172719
7.1622528
6.672052
6.27058
5.959194
5.7085008
5.508852
5.3488358
5.219099
23.551067
23.542486
23.541665
23.538862
23.534423
23.526736
23.508382
23.434119
23.198572
22.823584
22.077757
20.733642
18.942149
17.004362
15.199211
13.626494
12.264937
11.073192
10.02217
9.1026668
8.3513519
7.717422
7.162386
6.6722243
6.2707642
5.9593914
5.7087004
5.5090458
5.3490209
5.2192738
23.550027
23.541282
23.540557
23.537865
23.53346
23.525734
23.507297
23.433362
23.198718
22.823995
22.075104
20.729738
18.939705
17.00331
15.198795
13.626418
12.265062
11.073423
10.022446
9.1029658
8.3517156
7.7177995
7.1627691
6.67256
6.2710544
5.9596557
5.7089547
5.5092877
5.3492461
5.2194829
23.548963
23.540049
23.539424
23.536845
23.532475
23.524711
23.506192
23.432606
23.198766
22.824252
22.072461
20.725995
18.937404
17.002379
15.198492
13.626438
12.265259
11.0737
10.022744
9.1032786
8.3520565
7.7181902
7.1631407
6.6729005
6.271356
5.9599336
5.7092124
5.5095259
5.3494678
5.2196904
23.547874
23.538787
23.538264
23.535801
23.531468
23.523668
23.50507
23.431837
23.198702
22.824331
22.069805
20.722389
18.935192
17.001466
15.198158
13.626385
12.265349
11.073828
10.022904
9.1034979
8.352361
7.7185134
7.163451
6.6732067
6.271641
5.960205
5.7094756
5.5097702
5.3496899
5.2198944
23.546734
23.537475
23.537055
23.534708
23.530416
23.522583
23.503908
23.431027
23.198494
22.824195
22.067096
20.718889
18.933038
17.000533
15.197774
13.62627
12.265372
11.073935
10.023051
9.1037247
8.3526503
7.7188109
7.1637296
6.6734768
6.2718926
5.9604473
5.70971
5.509991
5.3498966
5.220088
23.545589
23.536155
23.53584
23.533612
23.529364
23.521501
23.502753
23.430216
23.198184
22.823885
22.064377
20.71554
18.93099
16.999626
15.197399
13.626171
12.265425
11.074053
10.023214
9.1039599
8.3529579
7.7191311
7.1640291
6.6737337
6.2721153
5.960656
5.7099208
5.510201
5.3500972
5.2202766
23.544419
23.534806
23.534598
23.532492
23.528289
23.520399
23.501583
23.429376
23.197747
22.823375
22.061619
20.712315
18.929023
16.998708
15.196983
13.62603
12.265435
11.074128
10.023333
9.1041683
8.3532455
7.7194299
7.1643038
6.6739923
6.2723598
5.9608957
5.7101544
5.5104202
5.3503025
5.2204696
23.543221
23.533429
23.533328
23.531345
23.527191
23.519279
23.500398
23.4285
23.197183
22.82267
22.058824
20.709215
18.927142
16.997786
15.196541
13.625878
12.265456
11.07423
10.023484
9.1044052
8.3535604
7.7197593
7.1646124
6.6742848
6.2726238
5.9611431
5.7103972
5.5106507
5.3505152
5.2206662
23.541996
23.532023
23.532032
23.530174
23.52607
23.518139
23.499199
23.427585
23.196496
22.821779
22.055997
20.706235
18.925348
16.996855
15.196057
13.625685
12.265443
11.074301
10.023601
9.1046115
8.3538485
7.7200832
7.1648973
6.6745618
6.272882
5.9613912
5.7106324
5.5108677
5.3507163
5.2208537
23.540743
23.530587
23.530708
23.528975
23.524925
23.516979
23.497985
23.426628
23.195691
22.820708
22.053139
20.703368
18.923639
16.995912
15.195518
13.625433
12.265379
11.074336
10.023691
9.1047872
8.3541186
7.7203836
7.1651883
6.6748117
6.273097
5.9615839
5.7108283
5.5110657
5.3509062
5.2210322
23.539462
23.52912
23.529354
23.527749
23.523756
23.515798
23.496753
23.425625
23.194774
22.819467
22.050256
20.700606
18.92201
16.994956
15.19492
13.625112
12.265246
11.074303
10.023713
9.1049076
8.3543355
7.7206327
7.1654341
6.6750562
6.273331
5.9618137
5.7110479
5.5112704
5.3510977
5.2212118
23.538152
23.527624
23.527971
23.526496
23.522561
23.514595
23.495503
23.424576
23.193754
22.818069
22.047351
20.697941
18.920463
16.993995
15.194271
13.624725
12.265049
11.074213
10.02369
9.1049928
8.3545222
7.7208623
7.165672
6.6753023
6.273564
5.9620391
5.7112718
5.5114829
5.3512925
5.2213908
23.536813
23.526097
23.52656
23.525215
23.52134
23.51337
23.494234
23.423481
23.192638
22.816527
22.044432
20.695365
18.918935
16.993042
15.193587
13.624288
12.264795
11.074069
10.023615
9.1050328
8.3546629
7.7210491
7.1658767
6.6755225
6.2737781
5.9622507
5.7114769
5.5116744
5.3514707
5.221557
23.535446
23.52454
23.525121
23.523907
23.520093
23.512121
23.492945
23.42234
23.191431
22.814861
22.041502
20.692874
18.917547
16.99211
15.19289
13.623822
12.264511
11.073902
10.023531
9.1050544
8.3547918
7.7212394
7.1660954
6.6757139
6.2739388
5.9623995
5.7116367
5.5118443
5.3516372
5.2217147
23.534053
23.522954
23.523655
23.522573
23.518822
23.51085
23.491637
23.421159
23.190144
22.813084
22.038567
20.690464
18.916237
16.991204
15.192184
13.623327
12.264186
11.07369
10.023398
9.1050389
8.3548787
7.7213829
7.1662736
6.6759172
6.2741431
5.9626047
5.7118352
5.5120291
5.3518102
5.2218771
23.53263
23.521336
23.522159
23.52121
23.517523
23.509555
23.490304
23.419933
23.188779
22.811207
22.035511
20.688123
18.914995
16.99033
15.191483
13.622813
12.263831
11.073446
10.023246
9.1050083
8.3549483
7.7215119
7.1664488
6.6761279
6.2743501
5.9628037
5.7120346
5.5122213
5.3519877
5.2220405
23.531178
23.519689
23.520633
23.519818
23.516197
23.508235
23.48895
23.418665
23.187339
22.809244
22.032567
20.685851
18.913818
16.989498
15.190804
13.622297
12.263449
11.07316
10.023044
9.1049446
8.3549817
7.7215991
7.1665912
6.6763251
6.2745524
5.9630065
5.7122261
5.5123966
5.3521497
5.2221916
23.529643
23.517956
23.519024
23.518343
23.514789
23.506833
23.487515
23.417301
23.185775
22.807147
22.029569
20.683587
18.912653
16.988671
15.190123
13.621764
12.263039
11.072889
10.022858
9.1048884
8.3550303
7.7217027
7.1667428
6.6764927
6.2747123
5.9631608
5.7123885
5.5125648
5.3523119
5.222344
23.528128
23.51624
23.517434
23.516888
23.513402
23.505453
23.486102
23.415946
23.184193
22.805028
22.026622
20.681345
18.911591
16.987945
15.18954
13.621312
12.262685
11.072583
10.022646
9.1048157
8.3550594
7.7217765
7.16686
6.6766639
6.2749044
5.9633628
5.7125812
5.5127441
5.3524803
5.2225026
23.526582
23.514492
23.515813
23.515402
23.511985
23.504044
23.48466
23.414551
23.182547
22.802843
22.02368
20.679228
18.910572
16.987264
15.189009
13.620902
12.262357
11.07231
10.022442
9.1047512
8.3550995
7.7218625
7.1669859
6.6768456
6.2751023
5.9635686
5.7127906
5.5129423
5.3526611
5.2226686
23.525004
23.512711
23.514161
23.513885
23.510539
23.502605
23.483189
23.413114
23.180837
22.800597
22.020747
20.677151
18.909591
16.986632
15.188539
13.620555
12.262084
11.072051
10.022263
9.1047073
8.355157
7.7219573
7.1671078
6.6770122
6.2752905
5.9637677
5.7129913
5.5131304
5.3528354
5.2228313
23.523393
23.510898
23.512476
23.512337
23.509061
23.501135
23.481686
23.411636
23.179064
22.798293
22.01782
20.675112
18.908649
16.986055
15.188144
13.620294
12.2619
11.071911
10.022156
9.1047258
8.3552736
7.7221181
7.1672879
6.6771709
6.2754302
5.9639065
5.7131463
5.5133005
5.3530051
5.2229934
23.521752
23.509051
23.510761
23.510758
23.507553
23.499636
23.480155
23.410117
23.177234
22.795934
22.014904
20.673108
18.907739
16.985522
15.187811
13.620105
12.261788
11.071834
10.022118
9.1047867
8.3554212
7.7222966
7.1674744
6.6773725
6.2756412
5.9641259
5.7133649
5.513505
5.353197
5.2231741
23.520079
23.50717
23.509014
23.509148
23.506013
23.498105
23.478592
23.408556
23.175345
22.793521
22.011996
20.671133
18.906852
16.985025
15.187529
13.619978
12.261718
11.071836
10.02216
9.1049132
8.3556221
7.7225236
7.1677113
6.6776173
6.275872
5.9643481
5.7135895
5.513724
5.3534011
5.2233632
23.518373
23.505255
23.507234
23.507504
23.50444
23.496543
23.476996
23.406955
23.173398
22.791059
22.009091
20.669181
18.90598
16.984553
15.187285
13.619895
12.261722
11.071873
10.022223
9.1050588
8.3558296
7.722747
7.1679421
6.6778757
6.2761301
5.9646044
5.7138337
5.5139446
5.3536018
5.2235493
23.516634
23.503306
23.505421
23.505828
23.502836
23.494949
23.475368
23.405312
23.171395
22.788546
22.006191
20.667246
18.905121
16.984103
15.187075
13.619857
12.261779
11.071968
10.022344
9.105232
8.3560698
7.7230156
7.1682099
6.6780945
6.2763062
5.9647636
5.714006
5.5141326
5.353789
5.223728
23.514862
23.501322
23.503575
23.504119
23.501199
23.493323
23.473707
23.403629
23.169336
22.785985
22.00329
20.665321
18.904263
16.983659
15.186878
13.619833
12.261843
11.072062
10.022455
9.1054078
8.3563034
7.7232624
7.1684535
6.6783523
6.2765662
5.9650258
5.7142511
5.5143559
5.3539963
5.2239223
23.513059
23.499304
23.501696
23.502377
23.499529
23.491665
23.472014
23.401904
23.167224
22.783379
22.000386
20.663403
18.903402
16.983218
15.186692
13.619823
12.261898
11.072185
10.022598
9.1056117
8.3565609
7.7235359
7.1687228
6.6786283
6.2768289
5.9652772
5.7145009
5.5145939
5.3542152
5.2241236
23.511221
23.497251
23.499783
23.500602
23.497826
23.489973
23.470287
23.400139
23.16506
22.780728
21.997478
20.661485
18.902534
16.982774
15.186509
13.619816
12.261983
11.072299
10.022725
9.1058032
8.3568042
7.723791
7.1689772
6.6788989
6.2770929
5.9655374
5.7147503
5.5148188
5.3544194
5.2243128
23.509349
23.495164
23.497837
23.498793
23.49609
23.488246
23.468524
23.398333
23.162842
22.77803
21.994562
20.659567
18.901661
16.982332
15.186336
13.619827
12.262091
11.072443
10.022863
9.1060028
8.3570686
7.7240855
7.1692653
6.6791145
6.2772533
5.9656777
5.7149084
5.5150001
5.3546042
5.2244911
23.507446
23.493044
23.49586
23.496952
23.494324
23.486488
23.466729
23.396489
23.160575
22.775289
21.991641
20.657648
18.900777
16.981883
15.186158
13.619834
12.262192
11.072572
10.023
9.1061978
8.3573207
7.7243519
7.169543
6.6793778
6.2775174
5.9659412
5.7151571
5.5152262
5.3548136
5.2246875
23.505508
23.490888
23.493849
23.495078
23.492523
23.484696
23.464898
23.394603
23.158256
22.772503
21.988709
20.655722
18.89988
16.981425
15.185977
13.619843
12.262301
11.072717
10.023163
9.106414
8.3575917
7.7246385
7.1698244
6.6796583
6.2777776
5.9661819
5.7153979
5.5154606
5.3550318
5.2248888
23.503536
23.488696
23.491805
23.493171
23.490688
23.48287
23.463033
23.392676
23.155884
22.76967
21.985763
20.653789
18.898967
16.980953
15.185786
13.619841
12.262397
11.072844
10.023299
9.1065869
8.3578379
7.7249011
7.1700941
6.6799556
6.2780609
5.9664594
5.7156516
5.5156842
5.3552339
5.2250763
23.501531
23.486471
23.489728
23.49123
23.48882
23.481011
23.461134
23.39071
23.153464
22.766794
21.982807
20.65185
18.898045
16.980478
15.185598
13.619849
12.262508
11.072995
10.023469
9.1067985
8.3581285
7.7251949
7.1703806
6.6801904
6.2782531
5.9666303
5.7158335
5.5158804
5.3554281
5.2252609
23.499492
23.48421
23.487616
23.489255
23.486917
23.479116
23.459199
23.388703
23.150991
22.763876
21.979838
20.649901
18.897106
16.979988
15.185397
13.619842
12.262603
11.073126
10.023612
9.1069976
8.3583755
7.7254524
7.1706372
6.6804707
6.278531
5.9669047
5.7160815
5.5161041
5.3556352
5.2254554
23.497418
23.481913
23.485469
23.487244
23.484979
23.477187
23.457227
23.386654
23.148469
22.760914
21.976852
20.647942
18.896151
16.979488
15.185189
13.619832
12.2627
11.073265
10.02377
9.1072111
8.3586371
7.7257279
7.1709043
6.6807512
6.2788027
5.9671676
5.7163425
5.5163496
5.3558587
5.22566
23.495311
23.47958
23.483287
23.485198
23.483007
23.475223
23.45522
23.384564
23.145896
22.757908
21.973849
20.645972
18.895179
16.978974
15.184972
13.619812
12.262783
11.073383
10.023903
9.1074088
8.3588821
7.7259862
7.1711611
6.6810266
6.2790703
5.9674319
5.7165947
5.5165758
5.3560637
5.2258498
23.493166
23.477211
23.481071
23.483116
23.480998
23.473223
23.453177
23.382431
23.143275
22.754857
21.970722
20.643991
18.894196
16.978456
15.184757
13.619801
12.26285
11.073529
10.024072
9.107616
8.3591492
7.7262823
7.1714481
6.6812397
6.2792304
5.9675729
5.716754
5.5167583
5.35625
5.2260294
23.490986
23.474807
23.478819
23.480999
23.478953
23.471185
23.451096
23.380257
23.140602
22.751763
21.967686
20.641999
18.893196
16.977924
15.184531
13.61978
12.262937
11.073654
10.024213
9.1078156
8.359402
7.7265492
7.1717041
6.6815003
6.2794926
5.9678357
5.7170046
5.5169867
5.3564614
5.2262278
23.48877
23.472365
23.476532
23.478846
23.476874
23.46911
23.448976
23.378041
23.13788
22.748623
21.964632
20.639994
18.892182
16.977383
15.184302
13.619759
12.263028
11.073793
10.024375
9.1080356
8.3596744
7.7268371
7.1719849
6.6817767
6.2797477
5.9680729
5.7172439
5.5172214
5.3566806
5.2264304
23.486518
23.469886
23.47421
23.476657
23.474758
23.466998
23.446819
23.375783
23.135107
22.745439
21.961558
20.637974
18.89115
16.976827
15.184061
13.619726
12.263104
11.073911
10.024511
9.1082357
8.3599253
7.7271042
7.1722568
6.6820735
6.2800322
5.9683528
5.7175017
5.5174478
5.3568844
5.2266194
23.48423
23.46737
23.471853
23.474433
23.472604
23.464851
23.444624
23.373482
23.132283
22.742213
21.958468
20.635944
18.890106
16.976266
15.183821
13.619701
12.263196
11.074052
10.024678
9.1084482
8.3601996
7.7274039
7.1725456
6.6822948
6.280203
5.9685009
5.7176669
5.5176352
5.3570746
5.226802
23.481907
23.464819
23.46946
23.472173
23.470415
23.462667
23.442392
23.371141
23.12941
22.738943
21.955358
20.633898
18.889044
16.97569
15.183568
13.619661
12.26327
11.074171
10.024814
9.10865
8.3604544
7.7276687
7.1728082
6.6825771
6.2804803
5.9687752
5.7179156
5.517859
5.357282
5.2269972
23.479548
23.462232
23.467032
23.469877
23.468189
23.460445
23.440122
23.368758
23.126487
22.735628
21.952227
20.631839
18.887965
16.975101
15.183307
13.619618
12.263347
11.074299
10.024968
9.1088687
8.3607263
7.7279535
7.1730802
6.6828541
6.2807465
5.9690289
5.7181705
5.518103
5.3575062
5.2272029
23.477155
23.459607
23.464566
23.467544
23.465926
23.458187
23.437814
23.366332
23.123515
22.732269
21.949074
20.629764
18.886868
16.974496
15.183035
13.619565
12.26341
11.074407
10.025095
9.1090649
8.3609783
7.7282232
7.1733522
6.6831444
6.2810221
5.9692997
5.7184247
5.5183285
5.3577097
5.2273916
23.474724
23.456946
23.462066
23.465174
23.463626
23.455892
23.435468
23.363863
23.120494
22.728867
21.945901
20.627676
18.885757
16.973885
15.182763
13.619518
12.263487
11.074538
10.025255
9.1092717
8.3612521
7.7285242
7.1736415
6.6833562
6.2811788
5.9694346
5.7185803
5.51851
5.3578962
5.2275718
23.472256
23.454249
23.45953
23.462768
23.461289
23.453559
23.433083
23.361353
23.117423
22.725421
21.942706
20.625573
18.884627
16.973257
15.182475
13.619456
12.263547
11.074648
10.025385
9.1094676
8.3615066
7.7287923
7.1739043
6.6836316
6.2814525
5.9696903
5.7188286
5.5187344
5.3581044
5.2277679
23.469753
23.451516
23.456959
23.460327
23.458916
23.451189
23.43066
23.358801
23.114302
22.721933
21.939489
20.623454
18.88348
16.972615
15.182179
13.61939
12.26361
11.074739
10.025536
9.1096815
8.3617788
7.7290793
7.1741804
6.6839094
6.2817164
5.969935
5.7190732
5.5189725
5.3583257
5.2279716
23.467213
23.448745
23.454353
23.457848
23.456508
23.44878
23.428199
23.356205
23.111131
22.718399
21.936251
20.621318
18.882314
16.971956
15.181868
13.61931
12.263655
11.07484
10.025662
9.1098721
8.3620282
7.7293504
7.1744631
6.6842226
6.2820121
5.9702215
5.719331
5.5191975
5.3585284
5.2281599
23.464636
23.445936
23.451711
23.455335
23.454061
23.446333
23.425697
23.353566
23.107909
22.71482
21.932989
20.619169
18.881134
16.971289
15.181554
13.619231
12.263709
11.074957
10.025813
9.1100783
8.362297
7.7296395
7.174743
6.684456
6.2822095
5.970398
5.7195173
5.5193972
5.3587255
5.2283468
23.462022
23.443092
23.449032
23.452783
23.451576
23.443847
23.423155
23.350885
23.104636
22.711196
21.929706
20.617004
18.879935
16.970605
15.181224
13.619137
12.263745
11.07505
10.025935
9.1102683
8.3625417
7.7298977
7.175003
6.6847425
6.2824915
5.9706766
5.7197664
5.5196212
5.3589333
5.2285422
23.459372
23.44021
23.446317
23.450194
23.449054
23.441325
23.420574
23.34816
23.101314
22.707528
21.9264
20.614825
18.878721
16.969908
15.180886
13.619036
12.263778
11.075148
10.02607
9.1104714
8.3627982
7.7301679
7.175265
6.685023
6.2827654
5.9709412
5.7200296
5.5198679
5.3591572
5.2287471
23.456687
23.437291
23.443565
23.447569
23.446495
23.438764
23.417955
23.345392
23.097943
22.703817
21.923075
20.612631
18.877491
16.969197
15.180535
13.618924
12.263797
11.075226
10.02618
9.1106587
8.3630398
7.7304252
7.1755214
6.6853004
6.2830379
5.9712107
5.7202873
5.5200981
5.359365
5.2289392
23.453963
23.434337
23.440779
23.444906
23.443899
23.436165
23.415296
23.342581
23.09452
22.700064
21.919728
20.610427
18.87625
16.968482
15.180186
13.618818
12.263829
11.075326
10.026319
9.1108484
8.363314
7.7307096
7.1757959
6.6855037
6.2831926
5.9713486
5.7204442
5.5202795
5.3595508
5.2291187
23.451201
23.431347
23.437955
23.442207
23.441264
23.433528
23.412597
23.339727
23.091046
22.696265
21.916357
20.608208
18.874993
16.967751
15.179823
13.6187
12.263845
11.075404
10.026432
9.1110311
8.3635563
7.7309687
7.176046
6.6857609
6.2834542
5.9716123
5.7206969
5.5205097
5.3597639
5.2293185
23.448401
23.428317
23.435094
23.439468
23.43859
23.43085
23.409857
23.336828
23.087519
22.692419
21.912964
20.605977
18.873721
16.967009
15.179453
13.618579
12.263864
11.075494
10.026565
9.1112311
8.363816
7.7312475
7.1763194
6.6860305
6.283705
5.9718466
5.7209343
5.5207432
5.3599824
5.2295207
23.445566
23.425249
23.432198
23.436693
23.435879
23.428134
23.407077
23.333886
23.083942
22.688527
21.909549
20.603731
18.872433
16.966251
15.17907
13.618444
12.263867
11.075561
10.026669
9.1114128
8.3640547
7.7315053
7.1765842
6.686327
6.2839949
5.9721338
5.7212001
5.5209749
5.3601896
5.2297121
23.442693
23.422145
23.429267
23.433883
23.433132
23.425379
23.404258
23.330901
23.080316
22.684592
21.906112
20.601475
18.871135
16.965488
15.178687
13.618314
12.263882
11.075649
10.026802
9.1115781
8.3643115
7.7318094
7.176862
6.6865319
6.2841482
5.9722661
5.7213535
5.5211554
5.3603757
5.2298921
23.439783
23.419006
23.426299
23.431036
23.430347
23.422585
23.401399
23.327872
23.076637
22.680612
21.902655
20.599207
18.869822
16.964711
15.17829
13.61814
12.263883
11.075716
10.026905
9.1117586
8.3645516
7.7320621
7.1771139
6.6868082
6.2844284
5.9725465
5.7216089
5.5213839
5.3605864
5.23009
23.436807
23.415799
23.423263
23.428119
23.427492
23.419723
23.398469
23.324767
23.072877
22.676557
21.899149
20.5969
18.868472
16.963901
15.177868
13.618009
12.263899
11.075805
10.027037
9.1119619
8.3648141
7.7323391
7.17738
6.6870819
6.2846937
5.9728001
5.7218641
5.5216289
5.3608118
5.2302969
23.433823
23.412585
23.42022
23.425195
23.424628
23.416851
23.395529
23.321648
23.069094
22.672487
21.895648
20.59461
18.867135
16.963106
15.177462
13.617832
12.263896
11.075868
10.027137
9.1121424
8.3650353
7.7325984
7.1776443
6.6873719
6.2849768
5.9730811
5.7221285
5.5218605
5.3610187
5.2304877
23.4308
23.409335
23.417141
23.422232
23.421725
23.413939
23.392546
23.318485
23.065257
22.668368
21.892124
20.592308
18.865783
16.962297
15.177046
13.617683
12.2639
11.075948
10.027262
9.1123177
8.3652872
7.7328864
7.177923
6.6875582
6.2851023
5.9731846
5.7222608
5.5220282
5.3611973
5.2306627
23.427739
23.406048
23.414025
23.419233
23.418784
23.410988
23.389524
23.315278
23.061368
22.664201
21.888577
20.589993
18.864416
16.96147
15.176614
13.617515
12.263882
11.076
10.027351
9.1124815
8.3655174
7.7331361
7.1781701
6.687821
6.2853733
5.9734573
5.7225142
5.5222557
5.3614073
5.23086
23.42464
23.402722
23.410872
23.416196
23.415806
23.407999
23.386462
23.312026
23.057427
22.659987
21.884902
20.587667
18.863033
16.96063
15.176171
13.617343
12.263866
11.076064
10.027462
9.1126637
8.3657657
7.7334048
7.1784339
6.6880855
6.2856247
5.9736897
5.7227509
5.5224904
5.3616273
5.2310632
23.421507
23.399361
23.407685
23.413123
23.41279
23.404971
23.383359
23.308732
23.053432
22.655726
21.881311
20.585256
18.861638
16.959775
15.175682
13.617158
12.263836
11.076106
10.027546
9.1128225
8.3659883
7.7336554
7.1787045
6.6883968
6.2859235
5.9739844
5.7230153
5.5227174
5.3618293
5.2312502
23.418335
23.395964
23.404461
23.410014
23.409738
23.401904
23.380218
23.305394
23.049384
22.651419
21.877702
20.582917
18.860237
16.958917
15.175229
13.616981
12.263791
11.076175
10.027665
9.112999
8.3662346
7.7339323
7.178974
6.6886029
6.2860858
5.974125
5.7231752
5.522902
5.3620179
5.2314316
23.415092
23.392496
23.401165
23.406832
23.406613
23.398764
23.377002
23.301976
23.045246
22.647027
21.874039
20.580537
18.858796
16.958019
15.174767
13.616794
12.263763
11.076223
10.027756
9.1131657
8.3664613
7.734176
7.1792255
6.6888858
6.2863696
5.9744086
5.7234281
5.5231271
5.3622258
5.231627
23.411846
23.389025
23.397867
23.403647
23.403483
23.395618
23.373779
23.298548
23.041088
22.64262
21.870389
20.578186
18.857378
16.957144
15.174299
13.616603
12.263734
11.076278
10.027862
9.1133476
8.3667011
7.7344332
7.1794762
6.6891541
6.2866346
5.9746666
5.7236901
5.5233757
5.3624523
5.231834
23.408563
23.385519
23.394533
23.400424
23.400316
23.392434
23.370516
23.295076
23.036875
22.638164
21.866715
20.575823
18.855941
16.956246
15.173807
13.616389
12.263678
11.076301
10.027931
9.1135006
8.3669147
7.7346711
7.1797234
6.6894317
6.286909
5.9749421
5.7239513
5.5236049
5.3626569
5.2320228
23.405242
23.381978
23.391164
23.397164
23.39711
23.389212
23.367213
23.29156
23.032607
22.633658
21.863022
20.573457
18.854497
16.955343
15.173315
13.616182
12.263637
11.076347
10.028032
9.1136577
8.3671477
7.7349415
7.1799874
6.6896043
6.2870257
5.9750405
5.7240808
5.5237706
5.362834
5.2321965
23.401884
23.3784
23.387758
23.393868
23.393869
23.385953
23.363871
23.288
23.028282
22.6291
21.859308
20.571085
18.853041
16.954425
15.172808
13.615959
12.263578
11.076368
10.028101
9.1138082
8.3673645
7.7351792
7.1802228
6.6898537
6.2872857
5.975307
5.7243329
5.5239982
5.3630441
5.2323939
23.398489
23.374788
23.384318
23.390536
23.390592
23.382656
23.360489
23.284397
23.023901
22.62449
21.855577
20.568711
18.851577
16.953497
15.172295
13.615735
12.263525
11.076404
10.028193
9.1139791
8.3676014
7.7354206
7.1804799
6.6901074
6.2875258
5.9755302
5.724564
5.52423
5.3632625
5.2325961
23.395057
23.371138
23.380843
23.387168
23.387277
23.379321
23.357068
23.28075
23.01946
22.619825
21.851826
20.566336
18.850102
16.952555
15.171767
13.615496
12.263454
11.076416
10.028254
9.1141246
8.3678136
7.735662
7.1807425
6.6904075
6.2878162
5.9758196
5.7248276
5.5244559
5.3634631
5.2327816
23.39159
23.367453
23.377331
23.383762
23.383925
23.375949
23.353609
23.277059
23.014961
22.615108
21.848057
20.563963
18.848624
16.951606
15.171238
13.615263
12.263397
11.07645
10.028347
9.1142823
8.3680481
7.735931
7.1810056
6.6905905
6.2879484
5.9759295
5.7249646
5.5246272
5.3636441
5.232958
23.388086
23.363734
23.373784
23.380321
23.380538
23.372539
23.350112
23.273326
23.010406
22.610338
21.844269
20.561588
18.847137
16.950643
15.170692
13.615013
12.263319
11.076457
10.028403
9.1144254
8.3682599
7.7361643
7.1812502
6.6908631
6.2882211
5.9762033
5.7252104
5.5248464
5.3638471
5.2331496
23.384545
23.35998
23.3702
23.376843
23.377113
23.369092
23.346576
23.26955
23.005791
22.605514
21.840461
20.559216
18.845643
16.949668
15.170139
13.614758
12.263244
11.076475
10.028479
9.1145884
8.3684902
7.7364148
7.1814945
6.6911175
6.2884721
5.9764442
5.7254595
5.5250883
5.3640702
5.2333543
23.380968
23.356191
23.366581
23.373327
23.37365
23.365607
23.343003
23.26573
23.001115
22.600632
21.836636
20.556844
18.844141
16.948679
15.169573
13.614491
12.263183
11.076471
10.028526
9.1147227
8.3686981
7.7366552
7.1817551
6.6914085
6.2887504
5.9767207
5.7257155
5.5253105
5.3642687
5.2335382
23.377355
23.352368
23.362927
23.369774
23.370151
23.362086
23.339391
23.261869
22.996378
22.595692
21.832794
20.55448
18.842638
16.947685
15.169006
13.61423
12.263105
11.076491
10.028605
9.1148685
8.3689272
7.7369213
7.1820149
6.691582
6.2888732
5.9768221
5.7258464
5.5254777
5.3644469
5.2337126
23.373704
23.348511
23.359237
23.366187
23.366616
23.358528
23.335742
23.257965
22.991579
22.590692
21.828935
20.552121
18.841126
16.946674
15.16842
13.613919
12.263012
11.076489
10.028654
9.1150057
8.3691385
7.7371565
7.1822609
6.6918494
6.28914
5.9770867
5.7260881
5.5256951
5.3646492
5.2339041
23.370016
23.344618
23.355513
23.362564
23.363045
23.354934
23.332056
23.254018
22.986718
22.585633
21.82506
20.549768
18.839611
16.945652
15.167825
13.613638
12.262922
11.0765
10.028725
9.1151624
8.3693671
7.7374092
7.1825093
6.6921041
6.2893872
5.9773173
5.726325
5.5259299
5.3648687
5.2341064
23.366296
23.340691
23.351755
23.358905
23.35944
23.351307
23.328335
23.25003
22.981796
22.580517
21.821169
20.547425
18.838092
16.944617
15.167217
13.613342
12.262817
11.076492
10.028773
9.1152923
8.369573
7.7376529
7.1827842
6.6924196
6.2896842
5.9776068
5.7265814
5.5261505
5.3650665
5.2342907
23.36254
23.336732
23.347963
23.355212
23.355799
23.347645
23.324579
23.246003
22.976811
22.575339
21.817263
20.545097
18.836576
16.943575
15.166604
13.613046
12.262717
11.076497
10.028844
9.1154403
8.3697975
7.7379058
7.1830347
6.6926248
6.2898602
5.977763
5.7267531
5.5263423
5.3652593
5.2344744
23.35875
23.332741
23.344136
23.351485
23.352125
23.343949
23.320789
23.241936
22.971761
22.5701
21.813343
20.542781
18.835056
16.942519
15.165975
13.612733
12.2626
11.076481
10.028888
9.1155726
8.3700004
7.7381339
7.1832795
6.6929028
6.2901364
5.9780384
5.7269961
5.5265605
5.3654623
5.2346662
23.354925
23.328716
23.340273
23.347721
23.348415
23.340218
23.316965
23.237828
22.966646
22.564795
21.809407
20.54048
18.833535
16.941452
15.165335
13.612413
12.262479
11.07644
10.028944
9.1157213
8.370217
7.7383745
7.1835233
6.6931685
6.290395
5.9782893
5.7272525
5.5268025
5.3656825
5.2348678
23.351066
23.324659
23.336378
23.343921
23.344671
23.336453
23.313106
23.23368
22.961466
22.559427
21.805457
20.538195
18.832017
16.940372
15.164682
13.612081
12.262345
11.076413
10.028983
9.115855
8.370421
7.7386083
7.1837725
6.6934457
6.2906644
5.9785578
5.7275073
5.5270291
5.3658869
5.2350574
23.34717
23.32057
23.332449
23.340086
23.340891
23.332652
23.309214
23.229491
22.95622
22.553998
21.801495
20.535931
18.830507
16.939291
15.16403
13.611756
12.262224
11.076405
10.029048
9.1159949
8.3706406
7.7388626
7.1840243
6.6936293
6.2908069
5.9786851
5.7276585
5.5272079
5.3660717
5.2352361
23.343238
23.316447
23.328486
23.336216