/*--------------------------------*- C++ -*----------------------------------*\
| =========                 |                                                 |
| \\      /  F ield         | OpenFOAM: The Open Source CFD Toolbox           |
|  \\    /   O peration     | Version:  v2012                                 |
|   \\  /    A nd           | Website:  www.openfoam.com                      |
|    \\/     M anipulation  |                                                 |
\*---------------------------------------------------------------------------*/
FoamFile
{
    version     2.0;
    format      ascii;
    class       volScalarField;
    location    "50";
    object      T;
}
// * * * * * * * * * * * * * * * * * * * * * * * * * * * * * * * * * * * * * //

dimensions      [0 0 0 1 0 0 0];


internalField   nonuniform List<scalar> 
24000
(
42.090486
42.104734
42.106692
42.111579
42.118552
42.131974
42.16229
42.267733
42.669052
43.300926
44.521462
47.1416
51.696519
58.065751
65.704687
74.224246
83.471028
93.505316
104.60363
117.0717
130.48332
143.49337
155.066
164.94361
173.26782
180.30661
186.32359
191.53478
196.10788
200.17152
42.092408
42.107132
42.108873
42.113465
42.120425
42.134351
42.164847
42.267934
42.67282
43.310224
44.550713
47.215141
51.831891
58.253195
65.911526
74.420187
83.632438
93.615124
104.62269
116.99049
130.34793
143.34631
154.93592
164.84026
173.19012
180.25147
186.28622
191.50972
196.08974
200.15542
42.094629
42.109598
42.111134
42.115551
42.12244
42.136324
42.166736
42.270248
42.674
43.314106
44.569287
47.256266
51.897137
58.33696
66.000283
74.497729
83.683054
93.613862
104.56409
116.87601
130.18354
143.15605
154.74679
164.67029
173.0456
180.1295
186.18083
191.41495
196.0009
200.06915
42.096906
42.112107
42.11343
42.117696
42.124518
42.13843
42.168888
42.272657
42.675356
43.317263
44.584105
47.289313
51.949543
58.408572
66.088014
74.598113
83.794954
93.739336
104.70922
117.04812
130.37893
143.35854
154.94344
164.8551
173.21733
180.28965
186.33186
191.55937
196.14078
200.20613
42.099223
42.114656
42.115762
42.119885
42.126646
42.140582
42.171063
42.275147
42.676342
43.319425
44.59632
47.315763
51.98858
58.459138
66.148057
74.664961
83.867226
93.818059
104.79777
117.14864
130.48505
143.45906
155.03343
164.93535
173.29042
180.35781
186.39672
191.62196
196.20178
200.26597
42.101578
42.117244
42.118129
42.122116
42.128824
42.142812
42.173356
42.277538
42.677124
43.321035
44.606964
47.338457
52.020246
58.498569
66.194506
74.717018
83.924211
93.880959
104.86944
117.23147
130.57486
143.54674
155.11389
165.00801
173.35662
180.4192
186.45469
191.67755
196.25576
200.31887
42.103973
42.119872
42.120532
42.124387
42.13105
42.14511
42.175744
42.279849
42.677759
43.322278
44.616549
47.358478
52.046686
58.529859
66.230415
74.756702
83.967089
93.927585
104.92177
117.29114
130.63891
143.60875
155.17035
165.05874
173.40274
180.46199
186.49514
191.7164
196.29352
200.35588
42.106406
42.122543
42.122975
42.126697
42.133321
42.147471
42.178214
42.282098
42.678319
43.323324
44.625407
47.37659
52.069416
58.555426
66.258984
74.787839
84.000334
93.963225
104.96115
117.33554
130.68631
143.65456
155.21201
165.0961
173.43665
180.4934
186.52481
191.74487
196.32118
200.38299
42.108878
42.125256
42.125453
42.129045
42.135635
42.149886
42.180753
42.284307
42.678861
43.324301
44.633767
47.393211
52.089314
58.576699
66.282041
74.812517
84.026284
93.990524
104.99067
117.3682
130.72079
143.68763
155.24191
165.12279
173.46076
180.51567
186.54582
191.76502
196.34075
200.40216
42.111392
42.128008
42.127968
42.131432
42.137989
42.152348
42.18335
42.286494
42.679436
43.325318
44.641781
47.408597
52.106976
58.594662
66.300854
74.832236
84.04666
94.0115
105.01274
117.392
130.74545
143.71095
155.26271
165.14111
173.47713
180.53065
186.55985
191.77842
196.35373
200.41488
42.113945
42.130799
42.130518
42.133856
42.140384
42.154851
42.185989
42.288666
42.680113
43.326461
44.651532
47.422945
52.122822
58.610014
66.31632
74.848025
84.062634
94.027533
105.02905
117.40899
130.76259
143.72681
155.27655
165.15303
173.48756
180.54002
186.56852
191.78664
196.36166
200.42264
42.116538
42.13363
42.133105
42.136317
42.142817
42.157392
42.188661
42.29081
42.680961
43.327797
44.659164
47.436398
52.137128
58.623286
66.329147
74.860698
84.075106
94.039667
105.04088
117.42074
130.77401
143.73703
155.28512
165.16008
173.49345
180.54512
186.57309
191.79087
196.3657
200.42658
42.119169
42.1365
42.135728
42.138815
42.145288
42.159972
42.191362
42.292944
42.681991
43.329379
44.666699
47.449059
52.150144
58.634918
66.339949
74.870973
84.084888
94.048851
105.04941
117.42878
130.78156
143.74357
155.29035
165.16412
173.49658
180.54761
186.57517
191.79269
196.36738
200.4282
42.121842
42.13941
42.138388
42.14135
42.147801
42.162584
42.194089
42.295086
42.683203
43.331258
44.674186
47.461026
52.162094
58.645313
66.349291
74.879549
84.092797
94.056063
105.05586
117.4346
130.7869
143.74816
155.29394
165.16674
173.49846
180.54898
186.57619
191.7935
196.36807
200.42885
42.124558
42.142359
42.141085
42.143924
42.150346
42.165227
42.196845
42.297238
42.684597
43.33347
44.68167
47.472403
52.173205
58.654873
66.357761
74.887186
84.099746
94.062362
105.06147
117.43952
130.79134
143.75207
155.29715
165.16924
173.50037
180.55045
186.57736
191.79447
196.36893
200.42968
42.127313
42.145348
42.143818
42.146535
42.152924
42.167894
42.199618
42.29944
42.686188
43.33601
44.689174
47.483301
52.183669
58.6639
66.36578
74.894385
84.106273
94.068228
105.06639
117.4437
130.79511
143.75545
155.29995
165.1714
173.502
180.55167
186.5783
191.79524
196.3696
200.43031
42.130108
42.14838
42.146591
42.149184
42.155534
42.17059
42.202415
42.301677
42.687979
43.338862
44.696706
47.49377
52.193589
58.672529
66.373501
74.901298
84.112461
94.073544
105.07089
117.44746
130.79844
143.75841
155.30241
165.17331
173.50344
180.55275
186.57913
191.7959
196.37018
200.43086
42.132942
42.151452
42.149403
42.151869
42.15818
42.173312
42.205229
42.303975
42.689972
43.34201
44.704262
47.503853
52.203021
58.680813
66.380959
74.907935
84.118163
94.078547
105.0752
117.45107
130.80158
143.76118
155.3047
165.17508
173.50476
180.55374
186.57988
191.7965
196.3707
200.43134
42.135816
42.154563
42.152252
42.154591
42.160864
42.17606
42.208063
42.306343
42.692161
43.345435
44.711836
47.513597
52.212039
58.688823
66.388234
74.914306
84.123745
94.083547
105.07965
117.45497
130.80505
143.76426
155.3073
165.17718
173.50642
180.55506
186.58096
191.79742
196.37153
200.43214
42.138729
42.157714
42.155139
42.157351
42.163582
42.178835
42.210917
42.308783
42.694538
43.349108
44.719421
47.523042
52.220697
58.69659
66.395253
74.92045
84.129184
94.088483
105.08418
117.45909
130.80879
143.76756
155.31008
165.17943
173.50824
180.55655
186.58222
191.79853
196.37254
200.43312
42.141682
42.16091
42.158064
42.160154
42.166335
42.181639
42.213793
42.311294
42.697093
43.352999
44.727019
47.532234
52.229054
58.704138
66.402006
74.926471
84.134543
94.093415
105.08887
117.46361
130.81305
143.7714
155.31336
165.18218
173.51055
180.55853
186.58395
191.8001
196.37401
200.43454
42.144675
42.164146
42.161032
42.162995
42.169124
42.184473
42.216694
42.313877
42.699808
43.357096
44.734625
47.54122
52.237166
58.7114
66.408627
74.932372
84.139797
94.098256
105.09355
117.46826
130.81757
143.77548
155.31686
165.18511
173.51303
180.56067
186.58586
191.80185
196.37567
200.43615
42.147709
42.167421
42.164038
42.165874
42.17195
42.187341
42.219621
42.31653
42.702668
43.361376
44.742235
47.550035
52.245049
58.718486
66.415169
74.938234
84.145024
94.103099
105.09833
117.47321
130.82253
143.78005
155.32082
165.1885
173.51597
180.56327
186.58822
191.80404
196.37775
200.43819
42.150785
42.170736
42.167081
42.168791
42.174813
42.190241
42.222582
42.31925
42.705667
43.36582
44.749841
47.558703
52.252698
58.725471
66.421647
74.944037
84.150183
94.107855
105.10304
117.47818
130.82761
143.78474
155.32486
165.19194
173.51895
180.56593
186.59065
191.80632
196.37994
200.44032
42.153901
42.174089
42.170162
42.171747
42.177714
42.193176
42.225574
42.322035
42.708794
43.370409
44.757437
47.567251
52.260135
58.732373
66.428074
74.949788
84.155281
94.112539
105.1077
117.4832
130.83285
143.78962
155.32909
165.19557
173.52214
180.5688
186.5933
191.80882
196.38233
200.44266
42.157057
42.177481
42.173281
42.174742
42.180653
42.196146
42.2286
42.324882
42.712038
43.375127
44.76502
47.575633
52.267439
58.73921
66.434433
74.955444
84.160245
94.117032
105.1121
117.48794
130.83786
143.79431
155.33312
165.19899
173.52512
180.57147
186.59576
191.81114
196.38457
200.44484
42.160257
42.180911
42.176437
42.177776
42.183634
42.199159
42.231661
42.327789
42.715391
43.379961
44.772599
47.583857
52.274655
58.746025
66.440782
74.961085
84.16519
94.121502
105.11649
117.49271
130.84299
143.79918
155.33736
165.20262
173.52831
180.57436
186.59845
191.81369
196.38703
200.44725
42.163499
42.184382
42.179631
42.180849
42.186655
42.20221
42.234762
42.330755
42.718847
43.3849
44.780176
47.59193
52.281807
58.75282
66.447112
74.96669
84.170074
94.125874
105.12072
117.49729
130.84792
143.80386
155.3414
165.20604
173.53128
180.57704
186.60092
191.81603
196.38929
200.44946
42.16678
42.187894
42.182865
42.183964
42.189717
42.205299
42.237904
42.333776
42.722399
43.389947
44.787757
47.599848
52.288901
58.759594
66.453424
74.972261
84.174903
94.130157
105.12483
117.50171
130.85269
143.80842
155.34534
165.20938
173.5342
180.57968
186.60338
191.81836
196.39154
200.45166
42.170102
42.191444
42.186138
42.18712
42.192818
42.208427
42.241084
42.336851
42.726043
43.395083
44.795294
47.607654
52.295922
58.766303
66.459642
74.977681
84.179494
94.134097
105.12844
117.50547
130.8567
143.81219
155.34852
165.21199
173.5364
180.58161
186.60513
191.82001
196.39312
200.4532
42.173462
42.195032
42.18945
42.190316
42.195961
42.211594
42.244304
42.339978
42.729778
43.400299
44.802786
47.615364
52.302888
58.772977
66.465824
74.983055
84.184015
94.137927
105.1319
117.50901
130.86046
143.81574
155.35151
165.21443
173.53845
180.58339
186.60674
191.82151
196.39455
200.4546
42.176862
42.198665
42.192799
42.193551
42.19915
42.214801
42.247564
42.343159
42.733602
43.405592
44.81023
47.623
52.309814
58.779634
66.471997
74.988423
84.188523
94.141705
105.13523
117.51233
130.86388
143.8189
155.35409
165.21645
173.54008
180.58476
186.60795
191.82261
196.39559
200.45561
42.180301
42.202336
42.196189
42.19683
42.202379
42.218048
42.250863
42.346396
42.737505
43.410958
44.817625
47.630565
52.316696
58.786259
66.478137
74.993754
84.192988
94.145419
105.13846
117.51549
130.86711
143.82183
155.35645
165.21827
173.54151
180.58594
186.60895
191.82351
196.39643
200.45642
42.183781
42.206045
42.19962
42.200151
42.20565
42.221337
42.254203
42.349687
42.741486
43.416393
44.824967
47.638056
52.323512
58.792809
66.484175
74.998945
84.197268
94.148873
105.14131
117.51812
130.8697
143.8241
155.35816
165.21945
173.54232
180.58651
186.60937
191.82384
196.39671
200.45669
42.187303
42.20979
42.203088
42.203511
42.208961
42.224669
42.257584
42.353028
42.745545
43.421891
44.83227
47.645485
52.330283
58.799313
66.490154
75.004072
84.201487
94.152282
105.14412
117.52071
130.87226
143.82636
155.35988
165.22066
173.54316
180.5871
186.6098
191.82417
196.39699
200.45695
42.190864
42.213572
42.206594
42.206911
42.212312
42.228042
42.26101
42.356419
42.749677
43.427442
44.839542
47.652869
52.337019
58.805773
66.496077
75.009127
84.20561
94.15557
105.14677
117.5231
130.87456
143.82834
155.3613
165.22155
173.54369
180.58738
186.60993
191.82421
196.39698
200.45693
42.194463
42.21739
42.210137
42.21035
42.215705
42.231456
42.264476
42.359859
42.753881
43.433059
44.846791
47.660216
52.343729
58.812212
66.501979
75.014165
84.209719
94.158858
105.14946
117.52555
130.87696
143.83042
155.36284
165.22259
173.54436
180.58781
186.61019
191.82436
196.39708
200.45701
42.198106
42.221248
42.213716
42.213828
42.219137
42.234913
42.267985
42.363347
42.758151
43.438725
44.854023
47.667526
52.350413
58.81862
66.507833
75.019126
84.213719
94.161983
105.15191
117.52768
130.87897
143.83209
155.36395
165.22318
173.54459
180.5878
186.61004
191.82412
196.3968
200.45673
42.20179
42.225144
42.217331
42.217345
42.222615
42.238416
42.271536
42.366887
42.762485
43.44444
44.86125
47.674813
52.357098
58.825042
66.513711
75.024125
84.217774
94.165188
105.15448
117.52998
130.88121
143.83403
155.36536
165.22409
173.54513
180.58809
186.61016
191.82414
196.39677
200.45668
42.205512
42.229075
42.220988
42.220904
42.226133
42.24196
42.275136
42.370475
42.766882
43.450206
44.868481
47.682082
52.363789
58.831481
66.519609
75.029141
84.221821
94.168355
105.15698
117.53219
130.88331
143.83579
155.36656
165.22476
173.54542
180.58814
186.61006
191.82395
196.39653
200.45643
42.209271
42.233043
42.224681
42.224503
42.22969
42.245545
42.278777
42.37411
42.77135
43.456021
44.875718
47.689338
52.370493
58.837948
66.525546
75.034209
84.225928
94.171595
105.15958
117.53456
130.88563
143.83779
155.368
165.22568
173.54599
180.58845
186.61019
191.82398
196.3965
200.45639
42.213068
42.237053
42.228411
42.228141
42.233289
42.24917
42.28246
42.377792
42.775878
43.461884
44.882956
47.696579
52.377196
58.844414
66.53147
75.039243
84.229965
94.174689
105.16193
117.53656
130.8875
143.83931
155.36895
165.22611
173.54605
180.58828
186.60989
191.82359
196.39608
200.45596
42.216901
42.241097
42.232178
42.231816
42.236934
42.252836
42.286185
42.381523
42.780465
43.467796
44.890196
47.703818
52.38392
58.850919
66.537451
75.044357
84.234108
94.177922
105.16446
117.53879
130.88969
143.8412
155.37031
165.22696
173.54654
180.58852
186.60996
191.82356
196.396
200.45587
42.220775
42.245175
42.235987
42.235538
42.240619
42.256544
42.289951
42.385306
42.785118
43.473774
44.89744
47.711061
52.390661
58.857454
66.54347
75.049511
84.238284
94.181163
105.16696
117.54097
130.89177
143.84296
155.37149
165.22761
173.54681
180.58854
186.60983
191.82334
196.39573
200.45559
42.224688
42.249286
42.23983
42.239298
42.244343
42.260297
42.29376
42.389134
42.789827
43.479801
44.90469
47.718309
52.397425
58.864031
66.549548
75.054748
84.242569
94.184544
105.16965
117.54339
130.89415
143.84503
155.373
165.2286
173.54742
180.5889
186.61001
191.82341
196.39574
200.45559
42.228637
42.25343
42.243709
42.243096
42.248107
42.264091
42.297615
42.393007
42.794593
43.485874
44.911956
47.725549
52.4042
58.870616
66.555626
75.059965
84.246796
94.187794
105.17209
117.54542
130.89606
143.84659
155.37399
165.22906
173.54752
180.58876
186.60973
191.82305
196.39534
200.45518
42.232623
42.257611
42.247623
42.24693
42.251909
42.267925
42.301511
42.396926
42.799414
43.491994
44.919236
47.73279
52.411004
58.877243
66.561766
75.065269
84.251141
94.191199
105.17473
117.54772
130.89831
143.84855
155.37541
165.22995
173.54803
180.58902
186.60982
191.82304
196.39528
200.45511
42.236652
42.261827
42.251571
42.250802
42.255752
42.271802
42.305449
42.40089
42.80429
43.49816
44.926529
47.740028
52.417825
58.8839
66.567947
75.070618
84.255531
94.19463
105.17736
117.54996
130.90042
143.85032
155.3766
165.23059
173.5483
180.58903
186.60967
191.8228
196.395
200.45482
42.240716
42.266073
42.255556
42.254712
42.259638
42.275725
42.30943
42.404904
42.809228
43.50437
44.933828
47.747264
52.424663
58.890598
66.574181
75.076041
84.260018
94.198186
105.18014
117.55239
130.90277
143.85235
155.37805
165.23151
173.54883
180.58931
186.60978
191.82279
196.39493
200.45473
42.244816
42.270356
42.259578
42.258663
42.263562
42.279687
42.313458
42.408963
42.814222
43.510627
44.941129
47.754487
52.431495
58.897292
66.5804
75.081427
84.264418
94.20158
105.18264
117.5544
130.90459
143.85381
155.37893
165.23186
173.54881
180.58905
186.60938
191.82232
196.39442
200.45422
42.248949
42.274674
42.263633
42.26265
42.267525
42.283689
42.317526
42.413065
42.81927
43.516947
44.948437
47.761709
52.438342
58.904021
66.586676
75.086899
84.268934
94.205134
105.18536
117.55668
130.90675
143.85566
155.38023
165.23263
173.54921
180.5892
186.60936
191.82219
196.39424
200.45403
42.253117
42.279023
42.267721
42.266674
42.27153
42.287729
42.321633
42.417211
42.824376
43.523309
44.95576
47.768938
52.445204
58.910778
66.592991
75.09242
84.273508
94.208737
105.18811
117.55894
130.90883
143.85737
155.38134
165.23319
173.54938
180.58911
186.60911
191.82185
196.39386
200.45364
42.257322
42.283401
42.271851
42.270737
42.275577
42.291808
42.325781
42.421409
42.829533
43.529712
44.9631
47.77617
52.452079
58.91757
66.599366
75.098028
84.2782
94.2125
105.19107
117.56148
130.91123
143.85942
155.38281
165.23411
173.54992
180.58938
186.6092
191.82183
196.39377
200.45354
42.261563
42.287808
42.276014
42.27484
42.279661
42.295931
42.329968
42.425651
42.834741
43.536157
44.970451
47.78339
52.45895
58.92436
66.605739
75.103616
84.282838
94.216149
105.19382
117.5637
130.91321
143.861
155.38378
165.23452
173.54994
180.58916
186.60883
191.82137
196.39328
200.45304
42.265836
42.292247
42.280208
42.278978
42.283782
42.300093
42.3342
42.429935
42.839998
43.542643
44.977809
47.790605
52.465833
58.931185
66.612173
75.1093
84.28761
94.219983
105.19683
117.56625
130.91559
143.86303
155.38522
165.23542
173.55044
180.58939
186.60887
191.82131
196.39316
200.4529
42.270145
42.296718
42.284434
42.283149
42.287939
42.304292
42.338471
42.43426
42.845307
43.54917
44.985172
47.797813
52.472723
58.938031
66.618646
75.115033
84.292435
94.223859
105.19986
117.56879
130.91791
143.86493
155.38649
165.2361
173.55072
180.5894
186.60871
191.82104
196.39285
200.45259
42.274491
42.301216
42.28869
42.287354
42.292133
42.308531
42.342781
42.43863
42.850674
43.555753
44.992541
47.805013
52.479626
58.944903
66.625171
75.120847
84.297374
94.227889
105.2031
117.5716
130.92055
143.86718
155.38811
165.23715
173.55135
180.58975
186.60887
191.82108
196.39282
200.45254
42.278869
42.305744
42.292983
42.291594
42.296368
42.312815
42.347133
42.443045
42.85609
43.562382
44.999916
47.812197
52.486522
58.951765
66.631683
75.126636
84.302255
94.231802
105.20612
117.57409
130.92279
143.86898
155.38926
165.23771
173.55151
180.58965
186.60861
191.82072
196.39242
200.45213
42.283278
42.310305
42.297307
42.295872
42.300638
42.317135
42.351528
42.4475
42.861562
43.569049
45.007308
47.819374
52.493422
58.958652
66.638248
75.132515
84.307269
94.235901
105.2094
117.57692
130.92544
143.87125
155.3909
165.23877
173.55215
180.59
186.60877
191.82076
196.3924
200.45209
42.287717
42.314892
42.30166
42.300182
42.304941
42.321491
42.355961
42.451995
42.867082
43.575756
45.014713
47.826548
52.500321
58.965552
66.644843
75.138442
84.312341
94.240044
105.2127
117.57973
130.92804
143.87341
155.39239
165.23964
173.55259
180.59015
186.60874
191.82063
196.39221
200.45189
42.292188
42.319504
42.306046
42.304523
42.309286
42.325883
42.360431
42.456536
42.872649
43.582501
45.022121
47.833714
52.507217
58.972468
66.65148
75.144441
84.317524
94.244342
105.2162
117.58282
130.93096
143.87592
155.39424
165.24088
173.55339
180.59065
186.60904
191.8208
196.39231
200.45198
42.296693
42.32414
42.310467
42.308904
42.313666
42.330312
42.364937
42.461121
42.878262
43.589283
45.029529
47.840856
52.514089
58.979363
66.658092
75.150404
84.322645
94.24853
105.21952
117.58561
130.9335
143.87801
155.39566
165.24168
173.55376
180.59075
186.60896
191.82061
196.39207
200.45173
42.301226
42.328805
42.314915
42.313317
42.318079
42.33478
42.369485
42.465746
42.883925
43.596116
45.036936
47.847979
52.520952
58.986274
66.664741
75.156437
84.327877
94.252881
105.22306
117.58869
130.93641
143.88051
155.39749
165.2429
173.55454
180.59122
186.60923
191.82076
196.39216
200.45179
42.305789
42.333496
42.319391
42.31776
42.322525
42.339282
42.37407
42.47041
42.889642
43.602994
45.044342
47.855078
52.5278
58.993185
66.671401
75.162491
84.333137
94.257256
105.22659
117.59174
130.93922
143.88286
155.39915
165.24391
173.55511
180.5915
186.60931
191.82073
196.39207
200.45169
42.310387
42.338208
42.323894
42.322233
42.327003
42.343819
42.37869
42.475115
42.895408
43.609907
45.051759
47.862153
52.53463
59.000096
66.678084
75.168595
84.338476
94.261746
105.2303
117.595
130.94229
143.88548
155.40107
165.2452
173.55594
180.59202
186.60963
191.82091
196.39217
200.45178
42.315013
42.342949
42.328429
42.326736
42.331518
42.348397
42.383348
42.479862
42.901224
43.616855
45.05918
47.869192
52.541423
59.006971
66.684726
75.174644
84.343727
94.266094
105.23377
117.59793
130.94494
143.88766
155.40254
165.24603
173.55634
180.59212
186.60955
191.82073
196.39194
200.45153
42.319664
42.347715
42.332991
42.331274
42.336064
42.353009
42.388047
42.484647
42.907085
43.623838
45.066597
47.876202
52.548194
59.013845
66.691393
75.180749
84.349074
94.270594
105.23747
117.60115
130.94797
143.89026
155.40445
165.2473
173.55715
180.59262
186.60984
191.82088
196.39203
200.4516
42.324341
42.352501
42.337579
42.335839
42.340641
42.357653
42.39278
42.489468
42.912991
43.630856
45.074007
47.88319
52.554944
59.020704
66.698061
75.186866
84.354437
94.275106
105.24116
117.60435
130.95093
143.89273
155.40619
165.24837
173.55775
180.59291
186.60993
191.82086
196.39195
200.4515
42.329049
42.357307
42.342197
42.340432
42.345252
42.362328
42.397545
42.494334
42.918941
43.637925
45.08141
47.89015
52.561673
59.027557
66.704749
75.193034
84.359885
94.279748
105.24506
117.60784
130.95422
143.89556
155.4083
165.24983
173.55874
180.59357
186.61037
191.82115
196.39216
200.45169
42.333783
42.362135
42.346844
42.34506
42.349897
42.367037
42.402344
42.499239
42.924943
43.645035
45.088803
47.897067
52.568355
59.034368
66.711396
75.19915
84.365248
94.284252
105.24873
117.611
130.95712
143.89796
155.40996
165.25081
173.55926
180.59378
186.61039
191.82106
196.39201
200.45153
42.33854
42.366986
42.351516
42.349716
42.35457
42.37178
42.407181
42.504181
42.930994
43.652179
45.096195
47.903942
52.575004
59.041168
66.718061
75.20531
84.370692
94.288885
105.25261
117.61445
130.96038
143.90079
155.41208
165.25227
173.56024
180.59444
186.61082
191.82136
196.39223
200.45173
42.343327
42.371855
42.35621
42.354397
42.35927
42.376552
42.412049
42.509158
42.937098
43.659358
45.103587
47.910768
52.5816
59.047922
66.724691
75.211437
84.376096
94.293458
105.2564
117.61779
130.9635
143.90341
155.41395
165.25346
173.56095
180.59482
186.611
191.82141
196.39222
200.4517
42.348141
42.376743
42.360928
42.359103
42.363999
42.381354
42.416947
42.514178
42.943246
43.666571
45.110969
47.917548
52.588156
59.054658
66.731333
75.217609
84.381583
94.29816
105.26038
117.62141
130.96697
143.90641
155.4162
165.25504
173.56204
180.59559
186.61154
191.82179
196.39253
200.45198
42.352976
42.381656
42.365674
42.363837
42.36876
42.386193
42.421883
42.519231
42.949439
43.673823
45.118339
47.924276
52.59466
59.061355
66.737948
75.223744
84.387002
94.302735
105.26415
117.62472
130.97004
143.90897
155.418
165.25614
173.56267
180.5959
186.61165
191.82179
196.39246
200.4519
42.357832
42.386584
42.370442
42.368598
42.373546
42.39106
42.426851
42.524318
42.955676
43.68113
45.125696
47.930956
52.601124
59.068037
66.744584
75.229948
84.392539
94.307487
105.26818
117.62838
130.97359
143.91208
155.42037
165.25782
173.56386
180.59675
186.61227
191.82227
196.39286
200.45227
42.362712
42.391527
42.375231
42.373382
42.378356
42.395953
42.431848
42.529439
42.961966
43.68848
45.133036
47.937583
52.607533
59.074683
66.751202
75.236149
84.39808
94.312234
105.27217
117.63198
130.97703
143.91504
155.42255
165.25928
173.5648
180.59736
186.61266
191.82253
196.39305
200.45244
42.367617
42.396487
42.380049
42.378189
42.3832
42.400872
42.436872
42.534601
42.968308
43.695867
45.140367
47.944158
52.613888
59.081304
66.757817
75.242378
84.403688
94.317095
105.27634
117.63584
130.9808
143.91838
155.42513
165.26116
173.56618
180.59839
186.61345
191.82316
196.3936
200.45296
42.37254
42.401466
42.384888
42.383027
42.388068
42.405823
42.441929
42.539795
42.974706
43.703291
45.147694
47.950669
52.620172
59.087866
66.764368
75.24853
84.409174
94.321764
105.28021
117.63926
130.98403
143.92112
155.4271
165.26242
173.56696
180.59884
186.6137
191.82329
196.39366
200.453
42.377484
42.406457
42.389745
42.387885
42.392958
42.410798
42.447013
42.54502
42.98115
43.710753
45.155003
47.95711
52.62639
59.094383
66.770911
75.25471
84.41473
94.326555
105.28426
117.64295
130.98762
143.92429
155.42954
165.26417
173.56821
180.59975
186.61438
191.82382
196.39411
200.45343
42.382454
42.41146
42.394622
42.392763
42.397869
42.415795
42.452121
42.550284
42.987642
43.718266
45.16229
47.96348
52.63255
59.100856
66.777432
75.260883
84.420292
94.331349
105.2883
117.64659
130.9911
143.92729
155.43175
165.26566
173.5692
180.6004
186.6148
191.82411
196.39433
200.45363
42.387442
42.416485
42.399522
42.397661
42.402808
42.420823
42.457259
42.555577
42.994182
43.725834
45.169556
47.96978
52.638657
59.107316
66.783977
75.267119
84.425959
94.336302
105.29258
117.65055
130.99496
143.93069
155.43438
165.26757
173.57059
180.60144
186.6156
191.82475
196.39488
200.45415
42.392445
42.42152
42.404441
42.402585
42.407767
42.425874
42.462425
42.560897
43.000777
43.733444
45.176795
47.975994
52.644679
59.113704
66.790452
75.273268
84.4315
94.341062
105.29654
117.65407
130.99829
143.93352
155.43641
165.26888
173.5714
180.60192
186.61587
191.8249
196.39497
200.45421
42.397467
42.426565
42.409376
42.407527
42.412745
42.430945
42.467612
42.566246
43.007431
43.741098
45.184009
47.982127
52.650629
59.120057
66.796932
75.27946
84.437129
94.345971
105.30075
117.65793
131.00204
143.93684
155.43898
165.27074
173.57275
180.60291
186.61663
191.8255
196.39548
200.4547
42.402508
42.431622
42.414333
42.412485
42.417748
42.436036
42.47282
42.571631
43.014144
43.748796
45.191206
47.988171
52.656501
59.126363
66.803389
75.285645
84.442753
94.350871
105.30494
117.66174
131.00571
143.94001
155.44134
165.27235
173.57383
180.60364
186.61713
191.82586
196.39577
200.45497
42.407564
42.436692
42.41931
42.41747
42.422772
42.441152
42.478055
42.57704
43.020909
43.756546
45.198386
47.994124
52.662293
59.132629
66.809846
75.291866
84.448451
94.355898
105.30933
117.66585
131.00974
143.94359
155.44413
165.27441
173.57537
180.60482
186.61805
191.82662
196.39644
200.4556
42.412634
42.441769
42.424302
42.422471
42.427812
42.446285
42.483309
42.582474
43.027726
43.76436
45.205532
47.999981
52.667983
59.138816
66.816232
75.298004
84.454026
94.360734
105.31343
117.66957
131.01329
143.94663
155.44636
165.2759
173.57634
180.60544
186.61846
191.8269
196.39665
200.45579
42.417727
42.446854
42.429308
42.427488
42.432868
42.451434
42.488579
42.587937
43.034598
43.772228
45.212646
48.005741
52.673586
59.144961
66.822621
75.304187
84.459689
94.365713
105.31777
117.67362
131.01727
143.95018
155.44913
165.27794
173.57786
180.6066
186.61937
191.82765
196.39732
200.45643
42.422831
42.451955
42.434333
42.43252
42.437946
42.456605
42.49387
42.593421
43.041537
43.780147
45.219726
48.01139
52.679091
59.151049
66.828983
75.310363
84.465342
94.370665
105.32205
117.6776
131.02114
143.95355
155.45168
165.27973
173.57911
180.60749
186.62003
191.82817
196.39775
200.45683
42.427947
42.457062
42.439373
42.437573
42.443038
42.461792
42.49918
42.598925
43.048543
43.788119
45.22677
48.016925
52.684495
59.157082
66.835332
75.316562
84.471059
94.37572
105.3265
117.68182
131.02534
143.95729
155.45461
165.28191
173.58076
180.60878
186.62106
191.82902
196.39852
200.45756
42.433077
42.462172
42.444424
42.442639
42.448144
42.466992
42.504502
42.604452
43.055611
43.796151
45.233776
48.022331
52.689775
59.163024
66.841605
75.322674
84.476654
94.380582
105.33064
117.68564
131.02904
143.9605
155.45701
165.28356
173.58189
180.60955
186.62161
191.82944
196.39886
200.45788
42.438221
42.467292
42.449491
42.447717
42.453266
42.472205
42.509837
42.610001
43.06274
43.804257
45.240761
48.027613
52.694948
59.168916
66.847878
75.328822
84.482321
94.385559
105.33496
117.68971
131.03311
143.96415
155.45988
165.28569
173.58349
180.61079
186.6226
191.83027
196.3996
200.4586
42.443374
42.472419
42.454576
42.452814
42.458406
42.477434
42.515187
42.615565
43.06993
43.812429
45.24771
48.032763
52.700004
59.174742
66.85412
75.334955
84.487978
94.390511
105.33922
117.69369
131.03704
143.96762
155.46252
165.28757
173.58483
180.61178
186.62335
191.83088
196.40013
200.4591
42.448538
42.477547
42.45967
42.457926
42.463556
42.482672
42.520545
42.621148
43.07719
43.820662
45.254618
48.037777
52.704946
59.180512
66.86035
75.341121
84.493707
94.395575
105.34365
117.69789
131.04124
143.97139
155.4655
165.2898
173.58653
180.61311
186.62443
191.8318
196.40096
200.45989
42.453718
42.48268
42.464774
42.463047
42.468716
42.487918
42.52591
42.626743
43.08453
43.828958
45.261481
48.042641
52.709751
59.186194
66.866511
75.347219
84.499344
94.400493
105.34782
117.70173
131.04502
143.97472
155.46802
165.29158
173.58779
180.61402
186.62512
191.83234
196.40143
200.46033
42.458904
42.487823
42.469894
42.46818
42.473894
42.49318
42.531289
42.632348
43.091942
43.837321
45.268299
48.047359
52.714431
59.19182
66.872667
75.353352
84.505062
94.405539
105.35218
117.70581
131.0491
143.97839
155.47092
165.29373
173.58941
180.61527
186.62613
191.8332
196.40219
200.46106
42.464097
42.492966
42.475022
42.473329
42.47908
42.49845
42.536673
42.637961
43.099423
43.845762
45.275068
48.051922
52.718973
59.197375
66.87879
75.359474
84.510776
94.410565
105.35649
117.70978
131.053
143.98184
155.47357
165.29563
173.59078
180.61629
186.62691
191.83384
196.40275
200.46159
42.469302
42.498108
42.480158
42.478486
42.484273
42.503725
42.54206
42.643591
43.106972
43.854273
45.281787
48.05633
52.723374
59.20286
66.884889
75.365601
84.516531
94.415662
105.36089
117.71387
131.05705
143.98546
155.47638
165.29771
173.59233
180.61749
186.62786
191.83462
196.40345
200.46226
42.474513
42.503257
42.485305
42.483651
42.48948
42.509008
42.547454
42.649227
43.114592
43.862841
45.288465
48.060567
52.727613
59.208243
66.890904
75.371641
84.522175
94.420614
105.36507
117.71765
131.06072
143.98868
155.47882
165.29941
173.59352
180.61832
186.62847
191.8351
196.40385
200.46263
42.479727
42.508405
42.490464
42.488832
42.494698
42.514299
42.55285
42.654871
43.122298
43.871464
45.295084
48.064634