/*--------------------------------*- C++ -*----------------------------------*\
| =========                 |                                                 |
| \\      /  F ield         | OpenFOAM: The Open Source CFD Toolbox           |
|  \\    /   O peration     | Version:  v2012                                 |
|   \\  /    A nd           | Website:  www.openfoam.com                      |
|    \\/     M anipulation  |                                                 |
\*---------------------------------------------------------------------------*/
FoamFile
{
    version     2.0;
    format      ascii;
    class       volVectorField;
    location    "50";
    object      U;
}
// * * * * * * * * * * * * * * * * * * * * * * * * * * * * * * * * * * * * * //

dimensions      [0 1 -1 0 0 0 0];


internalField   nonuniform List<vector> 
24000
(
(18.731946 0.0028192975 0)
(19.058615 0.010010822 0)
(19.709557 0.018358143 0)
(19.779413 0.025720136 0)
(19.784458 0.032380704 0)
(19.778486 0.039190625 0)
(19.758326 0.049054151 0)
(19.615021 0.063115057 0)
(19.441351 0.077610618 0)
(19.331638 0.087869309 0)
(19.174954 0.093247336 0)
(18.884961 0.090593624 0)
(18.456306 0.079198944 0)
(17.864127 0.062097362 0)
(17.145178 0.043863941 0)
(16.381467 0.02774803 0)
(15.639282 0.014868433 0)
(14.948021 0.0048324712 0)
(14.286589 -0.0020062717 0)
(13.570813 -0.0066104478 0)
(12.67879 -0.0089474441 0)
(11.540005 -0.0094745639 0)
(10.190109 -0.0088794352 0)
(8.7150968 -0.007540803 0)
(7.195318 -0.0057909167 0)
(5.6865549 -0.0039881739 0)
(4.228899 -0.002415357 0)
(2.8580918 -0.0012164895 0)
(1.6083738 -0.00045007464 0)
(0.51030009 -2.5817498e-05 0)
(18.739269 0.0029551874 0)
(19.069506 0.0092734479 0)
(19.721751 0.016337314 0)
(19.791138 0.021841007 0)
(19.797467 0.026478755 0)
(19.794891 0.030064405 0)
(19.781491 0.034119662 0)
(19.652337 0.038007129 0)
(19.487151 0.041066189 0)
(19.387613 0.042643501 0)
(19.239916 0.041976346 0)
(18.959006 0.038407886 0)
(18.540497 0.032962299 0)
(17.959879 0.025803276 0)
(17.256939 0.017711796 0)
(16.514911 0.010056981 0)
(15.798956 0.0035942088 0)
(15.136865 -0.0015241322 0)
(14.508382 -0.0054100452 0)
(13.830943 -0.0082184829 0)
(12.982358 -0.0098364939 0)
(11.891576 -0.010180073 0)
(10.586467 -0.0094124519 0)
(9.1403701 -0.0078102812 0)
(7.6222204 -0.0058151391 0)
(6.0830249 -0.0038439506 0)
(4.5658353 -0.0021921663 0)
(3.113474 -0.0010084436 0)
(1.7681553 -0.0003194451 0)
(0.56718244 -9.9121891e-06 0)
(18.743519 0.0030796317 0)
(19.07383 0.0084738144 0)
(19.726283 0.013989152 0)
(19.795081 0.017797145 0)
(19.801696 0.020977813 0)
(19.799103 0.02341019 0)
(19.785461 0.026293116 0)
(19.652679 0.028312986 0)
(19.483485 0.029798549 0)
(19.378357 0.031227548 0)
(19.222072 0.031024183 0)
(18.932016 0.028884362 0)
(18.504776 0.026358034 0)
(17.915063 0.023391807 0)
(17.203719 0.020050548 0)
(16.454531 0.016846891 0)
(15.731978 0.01409331 0)
(15.063605 0.011839057 0)
(14.428327 0.010040582 0)
(13.743267 0.0085817725 0)
(12.887042 0.0073144139 0)
(11.788251 0.0061250787 0)
(10.475166 0.0049443392 0)
(9.0233363 0.0037785652 0)
(7.5049616 0.0026703647 0)
(5.9734832 0.0017045482 0)
(4.4720568 0.00095413676 0)
(3.0419879 0.00043390797 0)
(1.7233065 0.00013515877 0)
(0.5512169 5.9373049e-06 0)
(18.747293 0.0026636691 0)
(19.078033 0.0072600958 0)
(19.730399 0.011462153 0)
(19.798239 0.01394739 0)
(19.804974 0.01577298 0)
(19.802584 0.017093758 0)
(19.789166 0.018666357 0)
(19.655811 0.019417823 0)
(19.486892 0.020323869 0)
(19.38081 0.021543402 0)
(19.221522 0.021511436 0)
(18.928565 0.019718399 0)
(18.499443 0.017786726 0)
(17.907849 0.015668504 0)
(17.195158 0.013282736 0)
(16.44573 0.010930689 0)
(15.723848 0.0088670959 0)
(15.056555 0.0071554249 0)
(14.422055 0.005769101 0)
(13.736549 0.0046320497 0)
(12.878142 0.0036277454 0)
(11.776656 0.0026972635 0)
(10.462221 0.0018880332 0)
(9.0111391 0.0012492148 0)
(7.4951262 0.00077476683 0)
(5.9666576 0.00043880603 0)
(4.4680952 0.0002202625 0)
(3.0402706 9.1020476e-05 0)
(1.7229953 2.6059557e-05 0)
(0.55139424 1.545155e-06 0)
(18.750588 0.0022230498 0)
(19.081405 0.0059755401 0)
(19.733396 0.0090406585 0)
(19.800109 0.01053986 0)
(19.806864 0.011398136 0)
(19.80443 0.012053602 0)
(19.791068 0.012766674 0)
(19.657152 0.01305561 0)
(19.489048 0.014139885 0)
(19.381957 0.015638803 0)
(19.21937 0.016034524 0)
(18.923132 0.014577038 0)
(18.491921 0.013099806 0)
(17.898261 0.011631012 0)
(17.183649 0.010021651 0)
(16.432849 0.0084139869 0)
(15.710049 0.0069782802 0)
(15.04196 0.0057591998 0)
(14.406311 0.0047470895 0)
(13.718754 0.0039040991 0)
(12.857311 0.0031516909 0)
(11.752817 0.0024377657 0)
(10.436637 0.0017946498 0)
(8.9855781 0.0012539359 0)
(7.4713 0.00082225852 0)
(5.9459738 0.0004950717 0)
(4.4515321 0.00026435402 0)
(3.02837 0.00011608956 0)
(1.7159204 3.5517433e-05 0)
(0.54901243 1.8095756e-06 0)
(18.753351 0.0017691265 0)
(19.084135 0.0047274508 0)
(19.735606 0.0068468574 0)
(19.801174 0.0076227949 0)
(19.80794 0.0077748617 0)
(19.805436 0.0079591412 0)
(19.792202 0.008124406 0)
(19.658866 0.0081670876 0)
(19.492364 0.0096074501 0)
(19.384684 0.011418356 0)
(19.219011 0.012207229 0)
(18.91967 0.010960148 0)
(18.486935 0.0097139085 0)
(17.892075 0.0085787837 0)
(17.176411 0.0073842314 0)
(16.42498 0.0061792907 0)
(15.701924 0.005090407 0)
(15.033724 0.0041515776 0)
(14.39775 0.0033663957 0)
(13.709196 0.0027231109 0)
(12.84592 0.0021721162 0)
(11.739449 0.0016606526 0)
(10.42207 0.0012048619 0)
(8.9709807 0.00082951758 0)
(7.4577689 0.00053762427 0)
(5.9343436 0.00032104362 0)
(4.4423383 0.00017028907 0)
(3.0218699 7.420516e-05 0)
(1.7121344 2.2394184e-05 0)
(0.5477732 1.1112813e-06 0)
(18.75562 0.0013346334 0)
(19.086312 0.0035896379 0)
(19.737188 0.0049433864 0)
(19.801663 0.0051925381 0)
(19.808437 0.0048373671 0)
(19.805878 0.0047136317 0)
(19.792812 0.0045321547 0)
(19.660933 0.0044533661 0)
(19.49653 0.0062752851 0)
(19.388421 0.0083876438 0)
(19.219553 0.0095279776 0)
(18.916951 0.0084339493 0)
(18.482854 0.0073409194 0)
(17.887169 0.0064288379 0)
(17.170808 0.0055289819 0)
(16.418979 0.004618275 0)
(15.695808 0.003789523 0)
(15.027611 0.0030656423 0)
(14.391497 0.0024556954 0)
(13.702329 0.0019628349 0)
(12.837831 0.0015576005 0)
(11.729984 0.0011907407 0)
(10.411704 0.00086453738 0)
(8.9604708 0.00059641723 0)
(7.4478701 0.00038840946 0)
(5.9256851 0.0002334058 0)
(4.4353775 0.00012468962 0)
(3.0168743 5.4742439e-05 0)
(1.7091874 1.6695711e-05 0)
(0.54679667 8.4912325e-07 0)
(18.757446 0.00094112316 0)
(19.088038 0.0025946979 0)
(19.738295 0.0033457869 0)
(19.801761 0.0032077909 0)
(19.808547 0.0025044841 0)
(19.805967 0.0021704305 0)
(19.793108 0.0017599612 0)
(19.663451 0.0016170446 0)
(19.501531 0.0037789045 0)
(19.393113 0.006138355 0)
(19.220914 0.0075643322 0)
(18.914891 0.0065724795 0)
(18.479549 0.0055788629 0)
(17.88333 0.0048118128 0)
(17.166558 0.0041195856 0)
(16.41454 0.0034233356 0)
(15.691405 0.0027895157 0)
(15.023351 0.0022299513 0)
(14.387293 0.0017556718 0)
(13.697847 0.0013774832 0)
(12.832625 0.001080971 0)
(11.723895 0.00082241667 0)
(10.404991 0.00059467193 0)
(8.9535888 0.0004089747 0)
(7.4412985 0.00026634578 0)
(5.9198536 0.00016061752 0)
(4.4306289 8.6145262e-05 0)
(3.0134342 3.7814741e-05 0)
(1.7071485 1.1410472e-05 0)
(0.54612107 4.9912266e-07 0)
(18.758889 0.0005983032 0)
(19.089405 0.0017518642 0)
(19.739048 0.0020442618 0)
(19.801593 0.0016214562 0)
(19.808395 0.00070482608 0)
(19.805821 0.00021320277 0)
(19.793201 -0.00035275725 0)
(19.666368 -0.00052809683 0)
(19.507201 0.0019076977 0)
(19.398545 0.0044464624 0)
(19.222864 0.0060871877 0)
(18.913276 0.0051590496 0)
(18.476757 0.0042352645 0)
(17.880195 0.0035664067 0)
(17.163196 0.0030266678 0)
(16.411111 0.0024936887 0)
(15.688085 0.0020134879 0)
(15.020238 0.0015858137 0)
(14.384341 0.0012209915 0)
(13.69483 0.00093255921 0)
(12.829225 0.0007178146 0)
(11.719981 0.00054076295 0)
(10.400693 0.00038727147 0)
(8.949162 0.00026370369 0)
(7.4370229 0.00017070218 0)
(5.9160028 0.00010257855 0)
(4.427447 5.5005041e-05 0)
(3.0111022 2.43339e-05 0)
(1.7057568 7.6473374e-06 0)
(0.54565889 4.7721676e-07 0)
(18.760014 0.00030950023 0)
(19.090494 0.001055817 0)
(19.739548 0.0010119614 0)
(19.801256 0.00038742413 0)
(19.808074 -0.0006486602 0)
(19.80552 -0.0012557186 0)
(19.79316 -0.0019261417 0)
(19.669612 -0.0021105469 0)
(19.513366 0.00052326564 0)
(19.404512 0.0031675803 0)
(19.225218 0.0049509255 0)
(18.911979 0.0040571157 0)
(18.474345 0.003187556 0)
(17.877571 0.0025865969 0)
(17.160465 0.0021601406 0)
(16.408385 0.0017525283 0)
(15.685501 0.0013962659 0)
(15.017889 0.001079108 0)
(14.382212 0.00080844664 0)
(13.692777 0.00059607588 0)
(12.827031 0.00044632726 0)
(11.717552 0.00033132287 0)
(10.398098 0.00023327175 0)
(8.9465324 0.00015558846 0)
(7.434498 9.9122383e-05 0)
(5.9137252 5.9453367e-05 0)
(4.4255561 3.2054478e-05 0)
(3.0097102 1.4141756e-05 0)
(1.7049255 4.3141198e-06 0)
(0.545384 2.0026808e-07 0)
(18.760884 7.5905382e-05 0)
(19.091373 0.00049477133 0)
(19.739874 0.0002159068 0)
(19.80082 -0.00053842756 0)
(19.807649 -0.0016354629 0)
(19.805126 -0.0023138594 0)
(19.793048 -0.0030514741 0)
(19.673094 -0.0032233618 0)
(19.519841 -0.00046513441 0)
(19.410807 0.0022093437 0)
(19.227807 0.0040660686 0)
(18.910908 0.003185917 0)
(18.472226 0.0023650042 0)
(17.875326 0.0018134629 0)
(17.158187 0.0014713783 0)
(16.406145 0.0011577446 0)
(15.683406 0.00089838419 0)
(15.016021 0.00067165079 0)
(14.380587 0.00048159559 0)
(13.691308 0.00033629721 0)
(12.825577 0.00024021044 0)
(11.716046 0.00017234976 0)
(10.39658 0.00011640568 0)
(8.9450678 7.3467479e-05 0)
(7.4331404 4.4335427e-05 0)
(5.9125241 2.5289928e-05 0)
(4.4245674 1.3212686e-05 0)
(3.0089863 5.8174776e-06 0)
(1.7044967 1.8742779e-06 0)
(0.54524461 1.316134e-07 0)
(18.761553 -0.00010373883 0)
(19.092106 5.5218188e-05 0)
(19.740093 -0.00037578875 0)
(19.800347 -0.0011962543 0)
(19.80718 -0.0023078181 0)
(19.804688 -0.0030217248 0)
(19.792905 -0.0037982773 0)
(19.676754 -0.0039431433 0)
(19.526444 -0.0011266377 0)
(19.417237 0.0015089285 0)
(19.230489 0.0033747977 0)
(18.91001 0.0024962625 0)
(18.470363 0.0017258807 0)
(17.873392 0.001214883 0)
(17.156258 0.00093770514 0)
(16.404262 0.00069477729 0)
(15.681649 0.00051108315 0)
(15.014468 0.00035893335 0)
(14.379272 0.00023941516 0)
(13.690193 0.00015390055 0)
(12.824567 0.00010267564 0)
(11.71509 7.0513249e-05 0)
(10.395705 4.4925632e-05 0)
(8.9443158 2.5709998e-05 0)
(7.4325252 1.3800911e-05 0)
(5.912039 7.2163174e-06 0)
(4.4242042 3.5651849e-06 0)
(3.0087403 1.4169069e-06 0)
(1.7043621 3.2980279e-07 0)
(0.54520556 -4.0181808e-08 0)
(18.762074 -0.00023360818 0)
(19.092738 -0.00027731265 0)
(19.740265 -0.00079151849 0)
(19.7999 -0.0016225578 0)
(19.806713 -0.0027112866 0)
(19.804249 -0.0034303096 0)
(19.792766 -0.0042205756 0)
(19.680516 -0.0043340254 0)
(19.53303 -0.0015189088 0)
(19.423635 0.0010242885 0)
(19.233151 0.0028407295 0)
(18.909255 0.0019584108 0)
(18.468741 0.0012438355 0)
(17.871733 0.00077080776 0)
(17.154615 0.00054712433 0)
(16.402654 0.00035975027 0)
(15.680135 0.00023524641 0)
(15.013119 0.00014152722 0)
(14.378138 7.7186225e-05 0)
(13.689268 3.6730725e-05 0)
(12.823779 1.8307652e-05 0)
(11.714378 1.2062172e-05 0)
(10.395074 7.6869896e-06 0)
(8.9437998 3.8477842e-06 0)
(7.4321421 1.3842407e-06 0)
(5.9117828 -2.7052082e-07 0)
(4.4240532 -6.8543537e-07 0)
(3.0086665 -3.535044e-07 0)
(1.704338 1.2157087e-07 0)
(0.545205 9.1659151e-08 0)
(18.762491 -0.00032188276 0)
(19.093308 -0.00051539225 0)
(19.740438 -0.0010563469 0)
(19.799539 -0.001860036 0)
(19.806296 -0.0028931332 0)
(19.803846 -0.0035893479 0)
(19.792653 -0.0043692734 0)
(19.684308 -0.004451846 0)
(19.539481 -0.0016871267 0)
(19.429864 0.00072591716 0)
(19.235713 0.0024454156 0)
(18.908645 0.0015630889 0)
(18.467386 0.00091562228 0)
(17.870361 0.00048654167 0)
(17.153258 0.00031277889 0)
(16.401316 0.00017074931 0)
(15.678861 8.9009045e-05 0)
(15.011974 3.2217128e-05 0)
(14.377184 -1.2781954e-06 0)
(13.688524 -1.7543384e-05 0)
(12.823191 -1.8019595e-05 0)
(11.713857 -9.5755704e-06 0)
(10.394579 -1.3644845e-06 0)
(8.94334 3.0579839e-06 0)
(7.43174 4.0488306e-06 0)
(5.9114572 3.485734e-06 0)
(4.4238134 2.3383909e-06 0)
(3.0085113 1.1177988e-06 0)
(1.704258 3.639737e-07 0)
(0.54518372 -1.6541192e-08 0)
(18.762844 -0.00037672489 0)
(19.093854 -0.00067282741 0)
(19.740649 -0.0011970504 0)
(19.799259 -0.0019492679 0)
(19.805949 -0.0029008744 0)
(19.803508 -0.0035563796 0)
(19.792577 -0.0043018457 0)
(19.688072 -0.0043461829 0)
(19.545701 -0.001684089 0)
(19.435819 0.0005697446 0)
(19.238129 0.0021542581 0)
(18.908202 0.0012760676 0)
(18.466337 0.00070271765 0)
(17.869318 0.00031931474 0)
(17.152227 0.0001860241 0)
(16.400294 7.2893213e-05 0)
(15.677884 1.2368258e-05 0)
(15.011106 -3.1788512e-05 0)
(14.376494 -5.8440467e-05 0)
(13.688058 -6.8457484e-05 0)
(12.822913 -6.0507601e-05 0)
(11.713663 -4.2579629e-05 0)
(10.394378 -2.5814322e-05 0)
(8.9430972 -1.4003152e-05 0)
(7.4314623 -6.7579893e-06 0)
(5.9111766 -3.0430196e-06 0)
(4.4235663 -1.1913142e-06 0)
(3.0083268 -3.4159708e-07 0)
(1.7041512 3.7304782e-08 0)
(0.54515145 -1.5224533e-10 0)
(18.763174 -0.00040511671 0)
(19.094411 -0.00076257871 0)
(19.740932 -0.0012409115 0)
(19.799086 -0.001922242 0)
(19.805706 -0.0027780531 0)
(19.80327 -0.003379271 0)
(19.79261 -0.0040746806 0)
(19.691749 -0.0040804954 0)
(19.551612 -0.0015674488 0)
(19.441417 0.00050145795 0)
(19.240359 0.0019199022 0)
(18.907928 0.0010443899 0)
(18.465606 0.0005423908 0)
(17.868609 0.0001996346 0)
(17.151522 9.6270439e-05 0)
(16.399587 1.8074344e-06 0)
(15.677208 -4.7051566e-05 0)
(15.010523 -8.497462e-05 0)
(14.376094 -0.00010774775 0)
(13.687905 -0.00011331143 0)
(12.822992 -9.8210003e-05 0)
(11.713872 -7.3181562e-05 0)
(10.394615 -5.0182921e-05 0)
(8.9432989 -3.2199812e-05 0)
(7.4316026 -1.9218626e-05 0)
(5.9112565 -1.0519059e-05 0)
(4.4236035 -5.1632275e-06 0)
(3.0083433 -2.21224e-06 0)
(1.7041626 -7.2439102e-07 0)
(0.54515894 -1.2446819e-07 0)
(18.763507 -0.00041183584 0)
(19.095 -0.00079755259 0)
(19.741301 -0.0012130482 0)
(19.799035 -0.0018112604 0)
(19.805581 -0.0025644607 0)
(19.803141 -0.0030972381 0)
(19.792723 -0.0037373705 0)
(19.695293 -0.003716549 0)
(19.557141 -0.0013814474 0)
(19.446586 0.00048336762 0)
(19.242357 0.0017143287 0)
(18.907791 0.00083900378 0)
(18.465153 0.00040131367 0)
(17.868186 9.3262196e-05 0)
(17.151085 1.2274607e-05 0)
(16.399129 -6.6994888e-05 0)
(15.676756 -0.0001040536 0)
(15.010147 -0.00013306284 0)
(14.375882 -0.00014875512 0)
(13.687933 -0.00014844819 0)
(12.823259 -0.00012808296 0)
(11.71429 -9.7972793e-05 0)
(10.395083 -6.9908584e-05 0)
(8.9437443 -4.7235355e-05 0)
(7.4319834 -3.021208e-05 0)
(5.911557 -1.8466797e-05 0)
(4.4238267 -1.0211138e-05 0)
(3.0084994 -4.5410151e-06 0)
(1.7042601 -1.1121439e-06 0)
(0.54519633 2.8087818e-08 0)
(18.763851 -0.000403182 0)
(19.095623 -0.00078989941 0)
(19.74175 -0.0011343621 0)
(19.799097 -0.0016447236 0)
(19.80557 -0.0022956042 0)
(19.803115 -0.0027540159 0)
(19.79291 -0.0033361368 0)
(19.698648 -0.0032939179 0)
(19.562235 -0.0011572855 0)
(19.451273 0.00049671782 0)
(19.24409 0.0015326282 0)
(18.907757 0.00066052699 0)
(18.464936 0.00028432011 0)
(17.868003 1.1331707e-05 0)
(17.150872 -4.8243187e-05 0)
(16.398876 -0.00011032879 0)
(15.676498 -0.00013201446 0)
(15.009935 -0.00014946288 0)
(14.375799 -0.00015784344 0)
(13.688058 -0.00015298297 0)
(12.823604 -0.00012996664 0)
(11.714782 -9.8568999e-05 0)
(10.395629 -6.9762796e-05 0)
(8.944273 -4.6683185e-05 0)
(7.4324481 -2.943095e-05 0)
(5.9119343 -1.7013181e-05 0)
(4.4241118 -8.7906038e-06 0)
(3.0086992 -3.8726512e-06 0)
(1.7043829 -1.1782824e-06 0)
(0.54524205 -1.0293691e-07 0)
(18.764224 -0.0003840612 0)
(19.096293 -0.00075023706 0)
(19.742285 -0.001021822 0)
(19.799276 -0.0014457 0)
(19.805675 -0.0020046512 0)
(19.803195 -0.0023855514 0)
(19.793176 -0.0029091421 0)
(19.701793 -0.0028506237 0)
(19.566879 -0.00092301668 0)
(19.455474 0.00052235196 0)
(19.245565 0.0013639611 0)
(18.907815 0.00049729218 0)
(18.464934 0.00017601702 0)
(17.868043 -6.546258e-05 0)
(17.150872 -0.00010904548 0)
(16.398835 -0.00015734121 0)
(15.676436 -0.00016594395 0)
(15.009894 -0.00017199327 0)
(14.375851 -0.00017181958 0)
(13.688275 -0.00016134128 0)
(12.824001 -0.00013528543 0)
(11.715299 -0.00010296882 0)
(10.396189 -7.4377872e-05 0)
(8.9448193 -5.1350675e-05 0)
(7.4329395 -3.3470348e-05 0)
(5.9123467 -2.0571173e-05 0)
(4.424436 -1.1306824e-05 0)
(3.0089343 -5.0417054e-06 0)
(1.7045303 -1.4294432e-06 0)
(0.54529704 -6.3826622e-08 0)
(18.764642 -0.00035718316 0)
(19.097022 -0.00068771491 0)
(19.742907 -0.00088971709 0)
(19.79957 -0.0012329858 0)
(19.805895 -0.001710662 0)
(19.803383 -0.0020180264 0)
(19.793524 -0.0024848716 0)
(19.704723 -0.0024149867 0)
(19.571085 -0.00069632546 0)
(19.45921 0.00055071125 0)
(19.2468 0.0012074819 0)
(18.907955 0.00035015308 0)
(18.465122 7.7993438e-05 0)
(17.868282 -0.00013393484 0)
(17.151073 -0.00016427444 0)
(16.398998 -0.0001996434 0)
(15.676574 -0.00019463584 0)
(15.010038 -0.00018729361 0)
(14.376057 -0.00017580593 0)
(13.688601 -0.00015763332 0)
(12.824457 -0.00012761676 0)
(11.715836 -9.3899513e-05 0)
(10.396749 -6.5603032e-05 0)
(8.9453607 -4.398732e-05 0)
(7.4334325 -2.7787606e-05 0)
(5.9127705 -1.5982178e-05 0)
(4.4247777 -8.2044224e-06 0)
(3.0091877 -3.6479084e-06 0)
(1.7046913 -1.2370713e-06 0)
(0.54535747 -1.6314175e-07 0)
(18.765112 -0.00032570643 0)
(19.09781 -0.00061004729 0)
(19.74361 -0.00074821223 0)
(19.799967 -0.0010200293 0)
(19.806221 -0.0014241749 0)
(19.80367 -0.0016703526 0)
(19.793947 -0.0020842222 0)
(19.707439 -0.0020073576 0)
(19.574879 -0.0004886157 0)
(19.462514 0.00057594577 0)
(19.247821 0.0010627548 0)
(18.908164 0.00021869928 0)
(18.465469 -1.0680253e-05 0)
(17.868692 -0.00019603434 0)
(17.151458 -0.00021759375 0)
(16.399349 -0.00024439827 0)
(15.676907 -0.00023040358 0)
(15.010369 -0.00021354696 0)
(14.376423 -0.00019321668 0)
(13.689037 -0.00016828033 0)
(12.824957 -0.00013390336 0)
(11.716353 -9.7712997e-05 0)
(10.39724 -6.821412e-05 0)
(8.9458031 -4.6379134e-05 0)
(7.4338152 -3.035718e-05 0)
(5.9130891 -1.9276852e-05 0)
(4.4250322 -1.1112241e-05 0)
(3.0093784 -5.1258091e-06 0)
(1.7048158 -1.3495668e-06 0)
(0.54540601 1.7811151e-09 0)
(18.76564 -0.00029229717 0)
(19.09866 -0.00052361204 0)
(19.744388 -0.00060491325 0)
(19.800456 -0.00081653935 0)
(19.806639 -0.0011581959 0)
(19.804045 -0.0013553156 0)
(19.794439 -0.0017211774 0)
(19.709955 -0.001640689 0)
(19.578301 -0.00030625287 0)
(19.465434 0.00059551627 0)
(19.248666 0.00093132136 0)
(18.908439 0.00010571392 0)
(18.465956 -8.5040364e-05 0)
(17.869262 -0.00024421091 0)
(17.152014 -0.00025718771 0)
(16.399892 -0.00027578106 0)
(15.677446 -0.00025302734 0)
(15.010916 -0.00022646826 0)
(14.376998 -0.00019668585 0)
(13.68965 -0.0001640416 0)
(12.825578 -0.00012455312 0)
(11.716933 -8.6842409e-05 0)
(10.39775 -5.7696396e-05 0)
(8.9462383 -3.6908945e-05 0)
(7.4341792 -2.2636428e-05 0)
(5.9133872 -1.2741432e-05 0)
(4.4252682 -6.4919072e-06 0)
(3.0095547 -2.9328694e-06 0)
(1.7049313 -9.7902523e-07 0)
(0.54545154 -1.2328114e-07 0)
(18.766227 -0.00025857939 0)
(19.099572 -0.00043368407 0)
(19.745234 -0.00046524339 0)
(19.801025 -0.00062875041 0)
(19.807138 -0.00091980155 0)
(19.804497 -0.0010801221 0)
(19.794991 -0.001403888 0)
(19.712289 -0.0013227252 0)
(19.581397 -0.0001545703 0)
(19.468025 0.00060406348 0)
(19.249371 0.00080818324 0)
(18.908776 3.9210811e-06 0)
(18.466563 -0.00015428369 0)
(17.869972 -0.00029092852 0)
(17.152729 -0.00029778908 0)
(16.400616 -0.00031118916 0)
(15.678189 -0.00028307853 0)
(15.011685 -0.00024981162 0)
(14.377797 -0.00021300215 0)
(13.690463 -0.00017355994 0)
(12.826345 -0.00012904002 0)
(11.717592 -8.9124108e-05 0)
(10.398282 -5.9741678e-05 0)
(8.9466549 -3.9103426e-05 0)
(7.4345021 -2.4682283e-05 0)
(5.9136374 -1.5040463e-05 0)
(4.4254618 -8.3132051e-06 0)
(3.0097004 -3.7603496e-06 0)
(1.7050295 -1.1014465e-06 0)
(0.54549167 -7.2064621e-08 0)
(18.766874 -0.00022611684 0)
(19.100543 -0.00034450357 0)
(19.746138 -0.00033307121 0)
(19.80166 -0.00046021679 0)
(19.807704 -0.00071337076 0)
(19.805015 -0.00084762644 0)
(19.795595 -0.0011357272 0)
(19.714462 -0.0010563536 0)
(19.584214 -3.5430028e-05 0)
(19.470338 0.00059913037 0)
(19.24997 0.00069206317 0)
(18.909169 -8.8499335e-05 0)
(18.467276 -0.00022090454 0)
(17.870802 -0.00033893637 0)
(17.153586 -0.00033931751 0)
(16.401507 -0.00034648789 0)
(15.679126 -0.00031271709 0)
(15.012671 -0.00027232914 0)
(14.378829 -0.0002275386 0)
(13.691502 -0.00018008153 0)
(12.827303 -0.00012909204 0)
(11.718391 -8.558467e-05 0)
(10.398907 -5.4678627e-05 0)
(8.9471318 -3.3885881e-05 0)
(7.4348636 -2.0180685e-05 0)
(5.9139136 -1.1092341e-05 0)
(4.4256731 -5.5417509e-06 0)
(3.009858 -2.5021933e-06 0)
(1.705135 -9.3758955e-07 0)
(0.54553466 -1.6780197e-07 0)
(18.76758 -0.00019584324 0)
(19.101572 -0.00025905693 0)
(19.747095 -0.00021085736 0)
(19.802348 -0.00031226813 0)
(19.808325 -0.00053988051 0)
(19.805587 -0.00065699876 0)
(19.796244 -0.00091605923 0)
(19.716496 -0.00084104263 0)
(19.586793 5.0894496e-05 0)
(19.472419 0.000577552 0)
(19.250489 0.00057628332 0)
(18.909609 -0.00018276054 0)
(18.468073 -0.0002924716 0)
(17.87173 -0.00039166834 0)
(17.154556 -0.00038919687 0)
(16.402533 -0.00039227202 0)
(15.680221 -0.0003555377 0)
(15.013838 -0.00031056426 0)
(14.380056 -0.00025960842 0)
(13.692733 -0.00020500958 0)
(12.828419 -0.00014737614 0)
(11.719289 -9.824659e-05 0)
(10.39957 -6.3083891e-05 0)
(8.947597 -3.9837052e-05 0)
(7.4351835 -2.5001474e-05 0)
(5.9141375 -1.5933462e-05 0)
(4.4258371 -9.4571375e-06 0)
(3.0099814 -4.497255e-06 0)
(1.7052213 -1.1738071e-06 0)
(0.54557166 5.4797535e-09 0)
(18.768342 -0.00016837339 0)
(19.102654 -0.00017914282 0)
(19.748097 -9.9690061e-05 0)
(19.803077 -0.00018452197 0)
(19.808987 -0.00039698169 0)
(19.806204 -0.00050381113 0)
(19.796929 -0.00073974059 0)
(19.718412 -0.00067056273 0)
(19.589171 0.00011095193 0)
(19.474309 0.00054523302 0)
(19.250953 0.00046587264 0)
(18.910093 -0.00027027187 0)
(18.468938 -0.0003566323 0)
(17.872736 -0.00043302173 0)
(17.155625 -0.00042488547 0)
(16.403678 -0.00042124803 0)
(15.681456 -0.00037926168 0)
(15.015168 -0.00032818831 0)
(14.381468 -0.00027035959 0)
(13.694159 -0.00020856338 0)
(12.829717 -0.00014454987 0)
(11.720327 -9.1146834e-05 0)
(10.40032 -5.3743328e-05 0)
(8.9481008 -3.0015091e-05 0)
(7.4355079 -1.6225237e-05 0)
(5.914347 -8.214215e-06 0)
(4.4259785 -3.913126e-06 0)
(3.0100825 -1.8051413e-06 0)
(1.7052918 -6.5478808e-07 0)
(0.54560292 -1.1969018e-07 0)
(18.769152 -0.00014416403 0)
(19.103784 -0.0001055914 0)
(19.749134 2.7293332e-07 0)
(19.803836 -7.5574965e-05 0)
(19.809681 -0.00028152278 0)
(19.806854 -0.00038303401 0)
(19.797641 -0.00060122752 0)
(19.720226 -0.00053881715 0)
(19.591381 0.00014902093 0)
(19.476043 0.00050481778 0)
(19.251384 0.00036005099 0)
(18.910622 -0.0003535206 0)
(18.469867 -0.00042209548 0)
(17.873816 -0.00048016504 0)
(17.156784 -0.00046519276 0)
(16.404934 -0.00045528846 0)
(15.682823 -0.00040955511 0)
(15.01665 -0.000354633 0)
(14.383053 -0.00029247053 0)
(13.695772 -0.00022520951 0)
(12.831193 -0.00015556822 0)
(11.721505 -9.8054693e-05 0)
(10.401146 -5.8283431e-05 0)
(8.9486169 -3.2963746e-05 0)
(7.4357937 -1.7964373e-05 0)
(5.9144902 -9.99496e-06 0)
(4.4260502 -5.3558773e-06 0)
(3.0101271 -2.4140988e-06 0)
(1.7053275 -6.8863368e-07 0)
(0.54562253 -6.4565116e-08 0)
(18.770012 -0.0001229558 0)
(19.104962 -3.8572021e-05 0)
(19.750204 8.9507872e-05 0)
(19.804619 1.6415564e-05 0)
(19.810399 -0.00018818791 0)
(19.807531 -0.00029023533 0)
(19.798377 -0.00049581918 0)
(19.721958 -0.00044191192 0)
(19.593453 0.00016414145 0)
(19.477653 0.00045045413 0)
(19.2518 0.00025408233 0)
(18.911198 -0.00043560971 0)
(18.470856 -0.00048988929 0)
(17.874967 -0.0005303928 0)
(17.158031 -0.00050699461 0)
(16.406297 -0.00048883279 0)
(15.684317 -0.00043814719 0)
(15.018281 -0.0003789191 0)
(14.384808 -0.00031238196 0)
(13.697577 -0.00023988819 0)
(12.832875 -0.00016444583 0)
(11.722881 -0.00010211438 0)
(10.402141 -5.8507073e-05 0)
(8.9492535 -3.0426522e-05 0)
(7.4361498 -1.4153643e-05 0)
(5.9146632 -5.5154738e-06 0)
(4.4261253 -1.7566255e-06 0)
(3.0101631 -6.2292604e-07 0)
(1.7053536 -3.7338917e-07 0)
(0.545638 -1.5917505e-07 0)
(18.770937 -0.00010343566 0)
(19.106206 2.1543935e-05 0)
(19.751324 0.00016904157 0)
(19.805441 9.4318831e-05 0)
(19.811157 -0.00011155016 0)
(19.80825 -0.00022029415 0)
(19.799152 -0.00041860958 0)
(19.723638 -0.0003749576 0)
(19.595424 0.00015845022 0)
(19.479176 0.00038176447 0)
(19.252221 0.00014348627 0)
(18.911833 -0.00052460708 0)
(18.471909 -0.00057121219 0)
(17.87619 -0.00059879383 0)
(17.159364 -0.00057020784 0)
(16.407761 -0.00054686038 0)
(15.685927 -0.00049428012 0)
(15.020044 -0.00043282825 0)
(14.386714 -0.00036277633 0)
(13.699552 -0.00028565846 0)
(12.834745 -0.00020394876 0)
(11.724451 -0.00013419446 0)
(10.403312 -8.3293094e-05 0)
(8.9500276 -4.8899253e-05 0)
(7.436595 -2.7490096e-05 0)
(5.9148809 -1.5580594e-05 0)
(4.4262145 -8.4939552e-06 0)
(3.0101982 -3.8671714e-06 0)
(1.7053755 -9.8581215e-07 0)
(0.54565141 -1.8228924e-08 0)
(18.771922 -8.5001185e-05 0)
(19.107507 7.4091239e-05 0)
(19.752488 0.00023735288 0)
(19.806296 0.00015861869 0)
(19.811949 -5.2021808e-05 0)
(19.809005 -0.00016692956 0)
(19.79996 -0.00036056384 0)
(19.725277 -0.00032633974 0)
(19.597312 0.00014482494 0)
(19.48063 0.00031571844 0)
(19.252657 4.3464388e-05 0)
(18.912524 -0.00060674273 0)
(18.473022 -0.00064736419 0)
(17.877481 -0.00065956754 0)
(17.16078 -0.00061992316 0)
(16.409323 -0.00058545433 0)
(15.68765 -0.00052457943 0)
(15.021934 -0.00045791835 0)
(14.388765 -0.00038436833 0)
(13.701699 -0.00030304321 0)
(12.83682 -0.00021672147 0)
(11.726255 -0.00014244724 0)
(10.404733 -8.7665769e-05 0)
(8.9510505 -5.0229951e-05 0)
(7.4372711 -2.6775491e-05 0)
(5.9152981 -1.2960764e-05 0)
(4.426461 -5.740736e-06 0)
(3.0103438 -2.4041073e-06 0)
(1.7054612 -8.2636345e-07 0)
(0.54568571 -1.5239667e-07 0)
(18.772933 -7.0162461e-05 0)
(19.108833 0.0001190043 0)
(19.753663 0.0002954655 0)
(19.807151 0.00021156186 0)
(19.812741 -8.0409915e-06 0)
(19.809762 -0.00012807798 0)
(19.800768 -0.00031918507 0)
(19.726853 -0.00029437022 0)
(19.599103 0.0001218195 0)
(19.482003 0.00024670347 0)
(19.253091 -5.57938e-05 0)
(18.91325 -0.00068374657 0)
(18.474169 -0.0007133427 0)
(17.878812 -0.00071366188 0)
(17.162245 -0.00066288693 0)
(16.410943 -0.00061696059 0)
(15.689438 -0.00054787976 0)
(15.023896 -0.00047717213 0)
(14.390895 -0.00040308173 0)
(13.703935 -0.00032086558 0)
(12.838999 -0.00023283923 0)
(11.728174 -0.00015644774 0)
(10.406265 -9.976337e-05 0)
(8.9521675 -6.0127763e-05 0)
(7.4380145 -3.4046723e-05 0)
(5.9157543 -1.8413655e-05 0)
(4.4267256 -9.2412497e-06 0)
(3.010495 -3.9598967e-06 0)
(1.7055475 -1.1421814e-06 0)
(0.5457196 -1.0404934e-07 0)
(18.773973 -5.9272079e-05 0)
(19.110189 0.00015702621 0)
(19.754854 0.0003457822 0)
(19.80801 0.00025617436 0)
(19.813538 2.6143118e-05 0)
(19.810525 -0.00010195411 0)
(19.801578 -0.00029325729 0)
(19.728379 -0.00027886987 0)
(19.600815 8.7621588e-05 0)
(19.483312 0.0001695983 0)
(19.25353 -0.00016015909 0)
(18.914007 -0.00076398987 0)
(18.475349 -0.00078098175 0)
(17.88018 -0.0007724198 0)
(17.163756 -0.00071223164 0)
(16.412616 -0.00065494484 0)
(15.691282 -0.00057724774 0)
(15.025918 -0.00050019686 0)
(14.393091 -0.00042189141 0)
(13.70625 -0.0003363324 0)
(12.841276 -0.0002449083 0)
(11.730216 -0.00016515898 0)
(10.407942 -0.0001054776 0)
(8.9534374 -6.3536576e-05 0)
(7.4389047 -3.5720608e-05 0)
(5.9163391 -1.8415755e-05 0)
(4.4270914 -8.6229474e-06 0)
(3.0107169 -3.6119484e-06 0)
(1.7056744 -1.2323303e-06 0)
(0.54576677 -2.02501e-07 0)
(18.775053 -4.9680222e-05 0)
(19.111585 0.00018889666 0)
(19.756075 0.00038787757 0)
(19.808888 0.00029302931 0)
(19.814352 5.2931404e-05 0)
(19.811305 -8.4265252e-05 0)
(19.802404 -0.00027726436 0)
(19.729873 -0.00027397834 0)
(19.602468 4.7023575e-05 0)
(19.484575 8.876777e-05 0)
(19.253986 -0.00026408879 0)
(18.914802 -0.00085022714 0)
(18.476565 -0.00086292002 0)
(17.881587 -0.00084792543 0)
(17.165311 -0.00078172015 0)
(16.414333 -0.00071547333 0)
(15.69317 -0.00063054615 0)
(15.027981 -0.0005470621 0)
(14.395326 -0.0004640215 0)
(13.708604 -0.00037486896 0)
(12.843602 -0.00027911994 0)
(11.73232 -0.00019373446 0)
(10.40969 -0.00012807831 0)
(8.9547836 -8.1285373e-05 0)
(7.4398694 -4.9606447e-05 0)
(5.9169904 -2.9607164e-05 0)
(4.4275125 -1.6453066e-05 0)
(3.0109799 -7.5189568e-06 0)
(1.7058265 -2.001778e-06 0)
(0.54582243 -3.3070608e-08 0)
(18.776168 -4.1247002e-05 0)
(19.113017 0.0002151952 0)
(19.757322 0.00042267747 0)
(19.809783 0.00032378277 0)
(19.81518 7.3976384e-05 0)
(19.812099 -7.2005497e-05 0)
(19.803243 -0.00026777811 0)
(19.731336 -0.00027534589 0)
(19.604069 4.5851484e-06 0)
(19.485798 9.8816242e-06 0)
(19.254462 -0.00036172138 0)
(18.915637 -0.0009291114 0)
(18.477816 -0.00093630465 0)
(17.883033 -0.00091322135 0)
(17.166909 -0.00083834235 0)
(16.416095 -0.00076006139 0)
(15.695098 -0.00066443602 0)
(15.030081 -0.00057057748 0)
(14.397597 -0.0004783732 0)
(13.711002 -0.0003834057 0)
(12.845987 -0.00028355406 0)
(11.7345 -0.0001948195 0)
(10.411532 -0.00012649177 0)
(8.9562348 -7.7945386e-05 0)
(7.4409433 -4.5602455e-05 0)
(5.917745 -2.4750895e-05 0)
(4.4280193 -1.2253635e-05 0)
(3.0113042 -5.3269955e-06 0)
(1.7060136 -1.6577921e-06 0)
(0.54588927 -1.6992802e-07 0)
(18.777317 -3.4458528e-05 0)
(19.114483 0.00023647768 0)
(19.758594 0.00045076474 0)
(19.810697 0.00034992013 0)
(19.816023 9.1691899e-05 0)
(19.812907 -6.2727669e-05 0)
(19.804093 -0.00026208142 0)
(19.732776 -0.00028016214 0)
(19.605627 -3.7711364e-05 0)
(19.48699 -6.5706728e-05 0)
(19.254966 -0.0004526865 0)
(18.916514 -0.0010015337 0)
(18.479108 -0.0010042863 0)
(17.884522 -0.00097464138 0)
(17.168554 -0.0008929458 0)
(16.417904 -0.0008051944 0)
(15.697071 -0.00070200903 0)
(15.03222 -0.00060167715 0)
(14.399904 -0.00050265966 0)
(13.713436 -0.00040229468 0)
(12.848407 -0.0002990781 0)